Gromacs Runs One Microsecond At Cannonball Speeds
   22
    1ACE   HH31    1   1.533   1.508   1.826
    1ACE    CH3    2   1.427   1.485   1.817
    1ACE   HH32    3   1.395   1.426   1.902
    1ACE   HH33    4   1.370   1.579   1.814
    1ACE      C    5   1.402   1.408   1.689
    1ACE      O    6   1.353   1.296   1.693
    2ALA      N    7   1.437   1.468   1.574
    2ALA      H    8   1.480   1.559   1.578
    2ALA     CA    9   1.419   1.411   1.441
    2ALA     HA   10   1.446   1.305   1.444
    2ALA     CB   11   1.271   1.423   1.400
    2ALA    HB1   12   1.209   1.370   1.472
    2ALA    HB2   13   1.242   1.528   1.398
    2ALA    HB3   14   1.256   1.379   1.302
    2ALA      C   15   1.512   1.481   1.340
    2ALA      O   16   1.561   1.590   1.366
    3NME      N   17   1.534   1.417   1.224
    3NME      H   18   1.489   1.328   1.209
    3NME    CH3   19   1.619   1.470   1.118
    3NME   HH31   20   1.580   1.565   1.083
    3NME   HH32   21   1.621   1.400   1.034
    3NME   HH33   22   1.720   1.484   1.155
   2.89732   2.89732   2.89732
