Gromacs Runs One Microsecond At Cannonball Speeds
   22
    1ACE   HH31    1  50.293  50.221  50.442 -0.8560 -1.1923 -1.6256
    1ACE    CH3    2  50.302  50.215  50.550 -0.2091 -0.0619  0.0634
    1ACE   HH32    3  50.210  50.214  50.596 -0.5092  3.9413 -2.1491
    1ACE   HH33    4  50.350  50.122  50.577  1.1635  0.0465 -2.7708
    1ACE      C    5  50.394  50.329  50.586 -0.1071 -0.0663 -0.4658
    1ACE      O    6  50.379  50.389  50.691  0.3963  0.4675  0.1718
    2ALA      N    7  50.496  50.346  50.504  0.0854 -0.5069 -0.0122
    2ALA      H    8  50.495  50.288  50.425 -0.2631  2.0137 -0.3027
    2ALA     CA    9  50.596  50.450  50.522 -0.8228 -0.4737 -0.6762
    2ALA     HA   10  50.660  50.443  50.432 -0.5261 -0.7689 -2.2550
    2ALA     CB   11  50.539  50.585  50.518  0.2152 -0.0607 -0.0476
    2ALA    HB1   12  50.472  50.598  50.431 -1.6021 -0.3094 -0.3025
    2ALA    HB2   13  50.483  50.606  50.611  0.5361  1.9825  1.5197
    2ALA    HB3   14  50.622  50.657  50.533  1.2819 -0.6873 -0.1963
    2ALA      C   15  50.693  50.436  50.636 -0.4579 -0.7412  0.0257
    2ALA      O   16  50.813  50.460  50.627 -0.3661 -0.2246 -0.0872
    3NME      N   17  50.645  50.406  50.758  0.0637 -0.3267 -0.0331
    3NME      H   18  50.547  50.400  50.765 -0.9089 -1.8758 -0.5069
    3NME    CH3   19  50.716  50.390  50.888  0.0009  0.3465 -0.4543
    3NME   HH31   20  50.811  50.354  50.886 -1.4041  1.7988  1.4160
    3NME   HH32   21  50.649  50.322  50.939 -2.2681 -0.7791 -2.7750
    3NME   HH33   22  50.716  50.482  50.947 -0.8655 -0.6340  1.0786
 100.89732 100.89732 100.89732
