Gromacs Runs One Microsecond At Cannonball Speeds
   22
<<<<<<< HEAD
    1ACE   HH31    1   1.413   1.155   1.599  0.8665 -0.4711  0.6462
    1ACE    CH3    2   1.393   1.260   1.621 -0.5523 -0.5245 -0.2409
    1ACE   HH32    3   1.289   1.274   1.650  0.0576  0.5635  1.5894
    1ACE   HH33    4   1.452   1.300   1.703  2.0725  0.6771 -2.5447
    1ACE      C    5   1.423   1.326   1.492  0.5101 -0.5147  0.7465
    1ACE      O    6   1.523   1.311   1.433  0.1569  0.4337  0.8481
    2ALA      N    7   1.323   1.408   1.453 -0.3524  0.3719 -0.3603
    2ALA      H    8   1.248   1.411   1.520  0.6298 -3.1659  1.1401
    2ALA     CA    9   1.320   1.506   1.341 -0.6995 -0.0875  0.3174
    2ALA     HA   10   1.217   1.541   1.332 -0.6697  0.0877  0.6303
    2ALA     CB   11   1.423   1.625   1.378  0.0134  0.2464 -0.5646
    2ALA    HB1   12   1.425   1.688   1.289  0.1902 -0.8825 -1.3926
    2ALA    HB2   13   1.396   1.680   1.468  1.1829 -1.0345  0.6161
    2ALA    HB3   14   1.521   1.581   1.402 -0.1107  0.3982  0.2316
    2ALA      C   15   1.343   1.442   1.198  0.8317  0.4620  0.0591
    2ALA      O   16   1.254   1.451   1.112 -0.1035 -0.4319 -0.2539
    3NME      N   17   1.454   1.366   1.184  1.2266 -0.1016 -0.1202
    3NME      H   18   1.515   1.354   1.263 -0.3321 -2.6737  0.8248
    3NME    CH3   19   1.481   1.286   1.067 -0.4449  0.8232  0.2337
    3NME   HH31   20   1.485   1.352   0.980 -2.2674  0.4026 -0.1965
    3NME   HH32   21   1.397   1.217   1.062  1.2403 -1.4372  1.3709
    3NME   HH33   22   1.578   1.241   1.088 -0.1647  1.5333  0.5036
   2.89732   2.89732   2.89732
=======
    1ACE   HH31    1  50.293  50.221  50.442 -0.8560 -1.1923 -1.6256
    1ACE    CH3    2  50.302  50.215  50.550 -0.2091 -0.0619  0.0634
    1ACE   HH32    3  50.210  50.214  50.596 -0.5092  3.9413 -2.1491
    1ACE   HH33    4  50.350  50.122  50.577  1.1635  0.0465 -2.7708
    1ACE      C    5  50.394  50.329  50.586 -0.1071 -0.0663 -0.4658
    1ACE      O    6  50.379  50.389  50.691  0.3963  0.4675  0.1718
    2ALA      N    7  50.496  50.346  50.504  0.0854 -0.5069 -0.0122
    2ALA      H    8  50.495  50.288  50.425 -0.2631  2.0137 -0.3027
    2ALA     CA    9  50.596  50.450  50.522 -0.8228 -0.4737 -0.6762
    2ALA     HA   10  50.660  50.443  50.432 -0.5261 -0.7689 -2.2550
    2ALA     CB   11  50.539  50.585  50.518  0.2152 -0.0607 -0.0476
    2ALA    HB1   12  50.472  50.598  50.431 -1.6021 -0.3094 -0.3025
    2ALA    HB2   13  50.483  50.606  50.611  0.5361  1.9825  1.5197
    2ALA    HB3   14  50.622  50.657  50.533  1.2819 -0.6873 -0.1963
    2ALA      C   15  50.693  50.436  50.636 -0.4579 -0.7412  0.0257
    2ALA      O   16  50.813  50.460  50.627 -0.3661 -0.2246 -0.0872
    3NME      N   17  50.645  50.406  50.758  0.0637 -0.3267 -0.0331
    3NME      H   18  50.547  50.400  50.765 -0.9089 -1.8758 -0.5069
    3NME    CH3   19  50.716  50.390  50.888  0.0009  0.3465 -0.4543
    3NME   HH31   20  50.811  50.354  50.886 -1.4041  1.7988  1.4160
    3NME   HH32   21  50.649  50.322  50.939 -2.2681 -0.7791 -2.7750
    3NME   HH33   22  50.716  50.482  50.947 -0.8655 -0.6340  1.0786
 100.89732 100.89732 100.89732
>>>>>>> origin/main
