Gromacs Runs One Microsecond At Cannonball Speeds
   22
    1ACE   HH31    1   1.420   1.493   1.679  0.4904  1.6656  1.0837
    1ACE    CH3    2   1.378   1.549   1.596  0.4070 -0.1085 -0.1314
    1ACE   HH32    3   1.292   1.603   1.637 -1.1906 -1.6424 -1.3074
    1ACE   HH33    4   1.454   1.608   1.545  2.1281 -2.7423 -0.7863
    1ACE      C    5   1.325   1.454   1.495 -0.5452  0.0903  0.8244
    1ACE      O    6   1.313   1.335   1.523 -0.1899 -0.0914 -0.0668
    2ALA      N    7   1.317   1.502   1.368 -0.2785  0.2311 -1.1354
    2ALA      H    8   1.330   1.601   1.353 -0.2367  0.5497  0.7818
    2ALA     CA    9   1.300   1.412   1.254 -0.0572 -0.3122  0.8446
    2ALA     HA   10   1.239   1.326   1.283 -1.5973  0.8602  1.1994
    2ALA     CB   11   1.246   1.485   1.129  0.4223  0.8615  0.3400
    2ALA    HB1   12   1.260   1.419   1.044 -0.1477  0.5528  0.4756
    2ALA    HB2   13   1.140   1.511   1.137  0.2630  0.0824  0.9712
    2ALA    HB3   14   1.306   1.572   1.103 -0.5800  0.8301 -2.4081
    2ALA      C   15   1.447   1.363   1.218  0.5049 -0.3893 -0.3670
    2ALA      O   16   1.510   1.418   1.130  0.0802 -0.1484  0.1210
    3NME      N   17   1.499   1.271   1.301  0.1748  0.1065  0.4172
    3NME      H   18   1.444   1.248   1.383  0.6104  0.2046  0.7430
    3NME    CH3   19   1.608   1.183   1.264  0.6022  0.1151  0.4802
    3NME   HH31   20   1.645   1.130   1.351  0.1366 -1.9217 -0.4996
    3NME   HH32   21   1.692   1.239   1.224  0.2039 -1.0117 -2.1502
    3NME   HH33   22   1.568   1.103   1.200 -1.1343  1.2307  0.1007
   2.89732   2.89732   2.89732
