Gromacs Runs One Microsecond At Cannonball Speeds
   22
    1ACE   HH31    1  50.060  50.471  49.311 -0.0323 -0.2128  0.1430
    1ACE    CH3    2  50.087  50.579  49.306  0.5076  0.2730 -0.1853
    1ACE   HH32    3  50.113  50.595  49.200 -0.9082  0.8787 -0.5829
    1ACE   HH33    4  50.008  50.643  49.340  1.2780  1.5516  0.3555
    1ACE      C    5  50.222  50.599  49.387 -0.1802  0.1009  0.1070
    1ACE      O    6  50.318  50.647  49.328 -0.5398 -0.0983  0.2030
    2ALA      N    7  50.223  50.545  49.507  0.1022 -0.5125 -0.2317
    2ALA      H    8  50.144  50.508  49.546  2.5797 -0.8138 -1.0616
    2ALA     CA    9  50.339  50.514  49.586 -0.4848  0.5788 -0.2893
    2ALA     HA   10  50.421  50.589  49.585  0.6417  1.0822 -0.7337
    2ALA     CB   11  50.302  50.495  49.738 -0.6630  1.0264 -0.3002
    2ALA    HB1   12  50.280  50.586  49.788  1.5986 -1.1993  0.8062
    2ALA    HB2   13  50.217  50.429  49.751  0.4346  0.9705  0.3528
    2ALA    HB3   14  50.379  50.438  49.794  1.5625 -1.0155 -1.4521
    2ALA      C   15  50.418  50.389  49.537  0.4048 -0.0091  0.8699
    2ALA      O   16  50.395  50.279  49.578 -0.0415  1.0133 -0.7040
    3NME      N   17  50.504  50.411  49.431  0.1227 -0.0085 -0.7112
    3NME      H   18  50.508  50.506  49.392 -0.7000  0.2011  0.0199
    3NME    CH3   19  50.584  50.308  49.367  0.5406 -0.6053 -0.2136
    3NME   HH31   20  50.516  50.227  49.334  2.3128 -0.0736 -1.2559
    3NME   HH32   21  50.658  50.263  49.437  0.7546 -0.4071  0.3542
    3NME   HH33   22  50.628  50.354  49.283 -3.9443 -0.8573 -0.3807
 100.89732 100.89732 100.89732
