; Parameters describing what to do, when to stop and what to save
integrator	= steep		; Algorithm (steep = steepest descent minimization)
emtol		= 1000.0  	; Stop minimization when the maximum force < 1000.0 kJ/mol/nm
emstep      = 0.01      ; Energy step size
nsteps		= 50000	  	; Maximum number of (minimization) steps to perform

; Parameters describing how to find the neighbors of each atom and how to calculate the interactions
nstxout = 1  ; Write coordinates at every step
nstvout = 1  ; Write velocities at every step
nstfout = 1  ; Write forces at every step
cutoff-scheme = Verlet
nstlist = 10
ns_type = grid
rlist = 1.0
rcoulomb = 1.0
rvdw = 1.0
pbc = xyz