Gromacs Runs One Microsecond At Cannonball Speeds in water
 2350
    1ACE   HH31    1   1.330   2.427   0.851 -0.9044  0.3775  0.1549
    1ACE    CH3    2   1.296   2.324   0.857 -0.1058  0.0900 -0.2877
    1ACE   HH32    3   1.211   2.321   0.924  1.0074 -1.0706  1.1506
    1ACE   HH33    4   1.269   2.296   0.755 -3.2622  1.3784  0.0976
    1ACE      C    5   1.405   2.224   0.905  0.8493 -0.2871 -0.3971
    1ACE      O    6   1.519   2.250   0.873  0.3982  0.3771 -0.0722
    2ALA      N    7   1.357   2.122   0.978  0.0575 -0.0474  0.1122
    2ALA      H    8   1.256   2.117   0.967  0.0736 -1.8782  0.4048
    2ALA     CA    9   1.411   1.993   1.037  0.5395 -0.5527  0.1883
    2ALA     HA   10   1.398   1.990   1.145  0.8565 -0.4107  0.2330
    2ALA     CB   11   1.311   1.885   0.994 -0.0495 -0.0739 -0.0036
    2ALA    HB1   12   1.225   1.924   1.049  1.3332  2.0160  0.7971
    2ALA    HB2   13   1.302   1.875   0.886  1.0213  0.1821 -0.1199
    2ALA    HB3   14   1.323   1.786   1.038 -0.3745 -0.6800 -1.2307
    2ALA      C   15   1.559   1.944   1.013  0.1291 -0.4767 -0.3129
    2ALA      O   16   1.585   1.830   1.059 -0.1369 -0.3003 -0.3576
    3NME      N   17   1.647   2.010   0.939 -0.6542 -1.0191  0.5668
    3NME      H   18   1.619   2.099   0.900  0.7166 -1.0507 -0.5650
    3NME    CH3   19   1.787   1.975   0.916 -0.3094 -0.2105  0.2278
    3NME   HH31   20   1.787   1.870   0.888  1.0494  0.0192 -0.7128
    3NME   HH32   21   1.856   1.995   0.998  0.0648  0.1402 -0.1628
    3NME   HH33   22   1.820   2.036   0.832  2.1229  0.7080  1.7315
    4SOL     OW   23   2.568   0.283   0.094  0.7439 -0.0590  0.3683
    4SOL    HW1   24   2.502   0.301   0.027  1.0888 -1.2154 -0.3128
    4SOL    HW2   25   2.560   0.189   0.111  0.7757  0.1835  1.8521
    5SOL     OW   26   2.631   0.865   1.686 -0.1364  0.3439  0.0875
    5SOL    HW1   27   2.608   0.810   1.761 -0.4663  0.1394 -0.1610
    5SOL    HW2   28   2.719   0.898   1.706 -1.8257  3.9073  2.6904
    6SOL     OW   29   2.448   2.461   0.678 -0.2567 -0.5350  0.0604
    6SOL    HW1   30   2.517   2.430   0.737 -1.0240 -0.0769  1.2261
    6SOL    HW2   31   2.367   2.431   0.718 -0.8693  0.7315 -0.1863
    7SOL     OW   32   1.299   1.390   0.253 -0.4499  0.5570 -0.2762
    7SOL    HW1   33   1.232   1.325   0.272  2.2193 -1.9790  1.3349
    7SOL    HW2   34   1.327   1.422   0.339  0.0330  1.9887 -0.9293
    8SOL     OW   35   2.210   0.313   0.295  0.2211  0.1907 -0.2390
    8SOL    HW1   36   2.219   0.223   0.262  1.8367  1.0158 -2.3145
    8SOL    HW2   37   2.262   0.366   0.234 -1.9633  2.7801 -0.0566
    9SOL     OW   38   2.221   1.664   0.348  0.0377 -0.5193  0.2231
    9SOL    HW1   39   2.298   1.648   0.403 -0.1827  0.7009  0.9289
    9SOL    HW2   40   2.147   1.629   0.398 -0.0540 -0.2713  0.2611
   10SOL     OW   41   2.372   1.109   2.677  0.0038 -0.0824 -0.1608
   10SOL    HW1   42   2.454   1.148   2.647  1.0309 -1.8063  0.2580
   10SOL    HW2   43   2.384   1.015   2.665 -2.5515 -0.3257 -1.5874
   11SOL     OW   44   0.446   0.734   1.601  0.4092 -0.1694  0.3666
   11SOL    HW1   45   0.447   0.738   1.505  0.6926 -1.7374  0.2803
   11SOL    HW2   46   0.477   0.646   1.622  0.1508  0.0743  1.9021
   12SOL     OW   47   0.810   1.177   2.205 -0.4707  0.5476 -0.4508
   12SOL    HW1   48   0.806   1.085   2.232  0.6379  0.5127 -0.3830
   12SOL    HW2   49   0.890   1.211   2.246 -1.1459  1.6931 -0.0198
   13SOL     OW   50   2.381   1.217   1.464  0.5650  0.1077 -0.1567
   13SOL    HW1   51   2.451   1.154   1.477  0.7616  0.1041 -1.1464
   13SOL    HW2   52   2.401   1.259   1.380  0.8904  2.0714  0.8398
   14SOL     OW   53   2.753   2.102   1.056  0.0002 -0.3652 -0.3506
   14SOL    HW1   54   2.680   2.065   1.106 -0.5682  0.3958 -0.5876
   14SOL    HW2   55   2.788   2.170   1.114 -2.9969  3.1604 -2.2381
   15SOL     OW   56   0.939   0.762   2.856  0.1806  0.8035 -0.2201
   15SOL    HW1   57   0.852   0.731   2.883 -0.1786  2.2885  0.4173
   15SOL    HW2   58   0.952   0.724   2.769 -1.1689  0.6784 -0.3911
   16SOL     OW   59   1.497   2.650   2.053  0.3019  0.4089 -0.0644
   16SOL    HW1   60   1.532   2.722   2.001  0.9990  1.1098  1.3433
   16SOL    HW2   61   1.555   2.643   2.128 -0.6864 -0.5729  0.6490
   17SOL     OW   62   0.653   1.148   1.171 -0.5409  0.3734  0.2046
   17SOL    HW1   63   0.731   1.096   1.151  1.3410  2.3152  1.9735
   17SOL    HW2   64   0.611   1.161   1.086 -0.5561 -3.0306 -0.4484
   18SOL     OW   65   1.853   1.924   2.617  0.8143  0.1404 -0.4351
   18SOL    HW1   66   1.894   2.011   2.610 -0.3446  0.5533 -3.8803
   18SOL    HW2   67   1.926   1.864   2.630  2.0424  1.3195 -1.5453
   19SOL     OW   68   0.033   2.323   1.117  0.0666 -0.1530 -0.1711
   19SOL    HW1   69   0.108   2.272   1.086 -0.6284 -1.0619 -0.4190
   19SOL    HW2   70   0.060   2.414   1.107  1.3677 -0.4630  0.3246
   20SOL     OW   71   2.383   1.675   0.103  0.0621 -0.4108  0.1217
   20SOL    HW1   72   2.290   1.675   0.125 -0.5435  0.5366 -2.1910
   20SOL    HW2   73   2.397   1.757   0.056  2.0938 -0.5136  0.4576
   21SOL     OW   74   1.445   1.922   1.757 -0.0729  0.8609 -0.1422
   21SOL    HW1   75   1.495   1.853   1.802 -0.3608  0.3690 -0.5700
   21SOL    HW2   76   1.373   1.942   1.816 -2.2924 -1.9718 -1.6077
   22SOL     OW   77   1.709   0.261   1.177  0.3212 -0.0730 -0.4519
   22SOL    HW1   78   1.798   0.257   1.211  0.9834 -0.0892 -2.0962
   22SOL    HW2   79   1.696   0.177   1.133 -0.3552  0.0866 -0.5653
   23SOL     OW   80   2.437   0.818   2.648 -0.7426 -0.3172  0.8507
   23SOL    HW1   81   2.450   0.799   2.555 -1.2967  0.5927  0.5724
   23SOL    HW2   82   2.372   0.754   2.677 -1.0574 -0.1888  0.4429
   24SOL     OW   83   1.364   1.489   1.792 -0.2793 -0.1474  0.1377
   24SOL    HW1   84   1.355   1.430   1.866  2.9610  0.3420  1.0985
   24SOL    HW2   85   1.359   1.433   1.715 -1.9738 -0.9222  0.7806
   25SOL     OW   86   2.608   1.225   2.570  0.0304 -0.5903 -0.0871
   25SOL    HW1   87   2.685   1.173   2.594  0.9871  0.6034 -0.4439
   25SOL    HW2   88   2.636   1.276   2.494 -1.5747 -1.1312 -1.1058
   26SOL     OW   89   0.352   1.594   2.055 -0.2506  0.1874 -0.2034
   26SOL    HW1   90   0.271   1.639   2.033 -0.5918 -1.2193 -2.1221
   26SOL    HW2   91   0.324   1.514   2.100  0.2224  0.6983  1.0548
   27SOL     OW   92   1.509   1.590   2.460 -0.2664 -0.0002 -0.2170
   27SOL    HW1   93   1.484   1.540   2.537  0.6335  0.4196  0.3638
   27SOL    HW2   94   1.461   1.549   2.388 -0.9325 -0.5431  0.5251
   28SOL     OW   95   1.281   2.689   1.324 -0.0740 -0.0699 -0.1419
   28SOL    HW1   96   1.242   2.605   1.346 -0.6590  0.2129 -0.0936
   28SOL    HW2   97   1.363   2.666   1.279  1.3381 -0.6722  2.5160
   29SOL     OW   98   1.761   0.082   1.738 -0.3373  0.2400  0.3611
   29SOL    HW1   99   1.853   0.064   1.756 -0.6294 -2.3015 -0.3079
   29SOL    HW2  100   1.750   0.065   1.644 -1.3262  1.3857  0.2331
   30SOL     OW  101   2.644   0.586   2.864  0.7142  0.3431 -0.5916
   30SOL    HW1  102   2.669   0.572   2.773  1.5196 -0.4317 -0.2618
   30SOL    HW2  103   2.707   0.534   2.915 -0.4229 -0.1582  0.3518
   31SOL     OW  104   0.623   2.137   1.582  0.1798 -0.5135  0.6701
   31SOL    HW1  105   0.711   2.115   1.550  0.5935  1.3586  0.3829
   31SOL    HW2  106   0.579   2.173   1.506 -0.1166  0.4801  1.2974
   32SOL     OW  107   0.040   2.332   2.624 -0.1023  0.0335 -0.3746
   32SOL    HW1  108   0.032   2.409   2.681  0.4043 -1.0411  1.2116
   32SOL    HW2  109  -0.046   2.292   2.624  0.0431 -0.2915  0.1430
   33SOL     OW  110   1.049   1.825   1.564  0.0624  0.0741  0.4871
   33SOL    HW1  111   1.021   1.873   1.642  0.5388  1.2057 -0.0210
   33SOL    HW2  112   1.108   1.758   1.598 -0.6293 -0.1919  1.2103
   34SOL     OW  113   1.270   2.695   1.844  0.0582  0.2966  0.1478
   34SOL    HW1  114   1.204   2.743   1.893  0.5644  1.9396 -0.7117
   34SOL    HW2  115   1.336   2.672   1.909 -0.1317  0.8836  0.5515
   35SOL     OW  116   2.357   1.249   0.295  0.3961 -0.8801 -0.4337
   35SOL    HW1  117   2.354   1.162   0.254  0.2065 -1.3361  0.5267
   35SOL    HW2  118   2.382   1.308   0.224 -2.1193 -1.3001 -1.7848
   36SOL     OW  119   1.029   1.983   2.525  1.1363 -0.1565  0.4964
   36SOL    HW1  120   1.065   1.990   2.613  1.4360  1.2662  0.2840
   36SOL    HW2  121   1.014   2.074   2.498  3.4159 -0.3682 -1.8695
   37SOL     OW  122   1.618   2.062   2.562  0.3470 -0.1538  0.0584
   37SOL    HW1  123   1.696   2.009   2.575 -0.4435 -0.9385  2.0169
   37SOL    HW2  124   1.550   2.000   2.534 -0.2308  0.0231  1.0027
   38SOL     OW  125   1.166   0.023   2.178  0.3375 -0.2757 -0.1935
   38SOL    HW1  126   1.095   0.022   2.242 -0.5086 -1.6609 -1.1111
   38SOL    HW2  127   1.227   0.089   2.211 -1.2741  0.8263  0.7091
   39SOL     OW  128   0.898   2.443   0.592 -0.6509  0.6259 -0.1577
   39SOL    HW1  129   0.893   2.414   0.683 -0.8100  1.3829  0.0865
   39SOL    HW2  130   0.856   2.373   0.542  1.1931 -0.7335  0.1141
   40SOL     OW  131   0.057   2.896   0.581 -0.4983  0.0580 -0.0767
   40SOL    HW1  132   0.024   2.986   0.580 -0.0596  0.2188 -0.1963
   40SOL    HW2  133   0.102   2.887   0.665  0.6539  0.3933 -0.6375
   41SOL     OW  134   1.633   1.830   0.529  0.3326 -0.0058  0.1534
   41SOL    HW1  135   1.653   1.756   0.586 -1.4367 -0.4691  0.2091
   41SOL    HW2  136   1.628   1.793   0.442  1.4620  0.4391 -0.1302
   42SOL     OW  137   0.108   1.701   1.970 -0.1958  0.6036  0.1821
   42SOL    HW1  138   0.038   1.755   2.007 -0.8304 -1.1077  1.5860
   42SOL    HW2  139   0.067   1.655   1.897  0.3001  1.8089 -0.9022
   43SOL     OW  140   1.138   1.079   1.092 -0.3826  0.1079  1.0450
   43SOL    HW1  141   1.162   1.022   1.165  0.9555  1.0308  1.3636
   43SOL    HW2  142   1.215   1.078   1.035 -0.0748  2.0519  1.3663
   44SOL     OW  143   2.053   0.453   2.247 -0.3526  0.4426  0.0441
   44SOL    HW1  144   2.045   0.358   2.250 -1.5073  0.5420  2.0336
   44SOL    HW2  145   1.962   0.484   2.244 -0.1005  1.4750  1.6420
   45SOL     OW  146   0.596   0.568   0.633  0.2004  0.0646 -0.4495
   45SOL    HW1  147   0.597   0.569   0.729  1.5741  0.1053 -0.4329
   45SOL    HW2  148   0.573   0.658   0.609 -1.0750 -0.1773 -0.1763
   46SOL     OW  149   0.004   1.201   0.362 -0.3966 -0.7721  0.9220
   46SOL    HW1  150   0.032   1.112   0.342  0.4813 -0.1725 -0.7507
   46SOL    HW2  151  -0.080   1.210   0.317 -0.3674 -0.6811  0.8851
   47SOL     OW  152   1.116   0.025   1.576  0.1362 -0.0285 -0.2952
   47SOL    HW1  153   1.176  -0.049   1.561  1.0943  0.9369 -1.4218
   47SOL    HW2  154   1.050   0.017   1.508 -0.0949 -0.1686 -0.0568
   48SOL     OW  155   0.833   2.411   1.683 -0.3639 -0.0697 -0.0841
   48SOL    HW1  156   0.927   2.430   1.683 -0.7635  2.1898 -1.0364
   48SOL    HW2  157   0.820   2.354   1.608  0.2341 -0.4188  0.0692
   49SOL     OW  158   1.374   0.172   0.001  0.2288  0.2701  0.2384
   49SOL    HW1  159   1.392   0.256   0.043 -1.5681  0.0147  1.6767
   49SOL    HW2  160   1.425   0.109   0.052 -1.0244  0.1209  1.4110
   50SOL     OW  161   2.163   0.470   1.860 -0.6482 -0.2809  0.0048
   50SOL    HW1  162   2.227   0.533   1.828 -0.3770 -1.3601 -1.6806
   50SOL    HW2  163   2.131   0.509   1.942  1.7173  0.5477  0.6212
   51SOL     OW  164   0.899   0.222   2.079  0.5409 -0.1478 -0.7281
   51SOL    HW1  165   0.961   0.186   2.016  1.2062 -2.1447  0.9748
   51SOL    HW2  166   0.816   0.177   2.059  0.2418  0.6789 -1.4041
   52SOL     OW  167   0.991   0.468   0.246 -0.1301 -0.2757 -0.1475
   52SOL    HW1  168   0.907   0.494   0.285 -0.2753 -0.9891  0.0343
   52SOL    HW2  169   1.057   0.502   0.306 -0.1551  2.2307 -1.3968
   53SOL     OW  170   2.742   0.026   2.628  0.2793  0.4721  0.2895
   53SOL    HW1  171   2.713   0.116   2.647 -0.1763  0.5532 -0.7262
   53SOL    HW2  172   2.775   0.030   2.538  1.8158 -0.0254  0.8015
   54SOL     OW  173   0.855   0.909   0.799 -0.0604 -0.2021  0.0175
   54SOL    HW1  174   0.882   0.990   0.756 -0.8410 -0.9160 -1.9611
   54SOL    HW2  175   0.926   0.847   0.778 -0.1992 -0.4286  0.2116
   55SOL     OW  176   2.551   0.148   1.020 -0.1764 -0.4063 -0.2798
   55SOL    HW1  177   2.496   0.077   1.051 -0.6512 -0.2264 -0.6903
   55SOL    HW2  178   2.490   0.219   1.000  0.4572  1.1157  2.6050
   56SOL     OW  179   1.711   1.112   0.291 -0.0341  0.3696 -0.4951
   56SOL    HW1  180   1.695   1.206   0.286 -0.7926  0.2411 -0.6675
   56SOL    HW2  181   1.761   1.100   0.371  1.4365  1.0895 -1.2774
   57SOL     OW  182   1.819   0.897   2.800  0.0485  0.3086 -0.6159
   57SOL    HW1  183   1.842   0.954   2.727  1.7333  0.0975 -0.2705
   57SOL    HW2  184   1.806   0.956   2.874 -1.2430  0.4844 -0.9622
   58SOL     OW  185   1.078   1.413   1.879  0.4387  0.5034 -0.0389
   58SOL    HW1  186   1.138   1.352   1.921  0.4936  0.1192 -0.6592
   58SOL    HW2  187   1.008   1.426   1.943  1.0332  0.7367  0.5738
   59SOL     OW  188   0.447   0.845   1.930  0.2258  0.0986  0.3658
   59SOL    HW1  189   0.534   0.815   1.956 -0.2210 -0.0089  1.8779
   59SOL    HW2  190   0.448   0.846   1.835  2.0059  0.4726  0.3610
   60SOL     OW  191   0.317   2.503   0.464  0.6037  0.3806 -0.0431
   60SOL    HW1  192   0.280   2.564   0.400 -0.1341 -0.4343 -0.4147
   60SOL    HW2  193   0.242   2.454   0.498  1.0914  0.1938  0.8079
   61SOL     OW  194   1.468   0.732   0.679  0.4773 -0.5018 -0.0989
   61SOL    HW1  195   1.383   0.730   0.723  0.0258  0.7928 -0.8340
   61SOL    HW2  196   1.509   0.649   0.701 -0.4120 -0.5819  1.3894
   62SOL     OW  197   0.497   2.587   2.737 -0.2186  0.0001 -0.3437
   62SOL    HW1  198   0.480   2.675   2.704  0.1558  0.4464  0.5967
   62SOL    HW2  199   0.455   2.528   2.674 -0.2023  0.8377 -1.1477
   63SOL     OW  200   0.465   0.998   2.743 -0.0229 -0.0820  0.4249
   63SOL    HW1  201   0.498   0.924   2.692 -1.0580  0.4796 -1.1346
   63SOL    HW2  202   0.465   0.966   2.833  1.8849 -1.1023  0.1330
   64SOL     OW  203   0.833   0.736   1.735 -0.4782  0.3617 -0.0489
   64SOL    HW1  204   0.921   0.744   1.701 -0.3065 -1.5469 -0.1864
   64SOL    HW2  205   0.807   0.646   1.713 -1.0233 -0.4030  3.2060
   65SOL     OW  206   2.162   1.419   1.456 -0.3872  0.1941 -0.2192
   65SOL    HW1  207   2.215   1.355   1.506 -1.4329 -1.0025 -0.5948
   65SOL    HW2  208   2.181   1.399   1.364  0.4839  1.4945 -0.3462
   66SOL     OW  209   0.501   2.414   1.908 -0.2802  0.2469  0.7045
   66SOL    HW1  210   0.519   2.494   1.858 -0.6876  0.9108  1.5964
   66SOL    HW2  211   0.575   2.407   1.969 -0.7613  0.5225  1.3322
   67SOL     OW  212   2.332   0.365   2.858  0.1126 -0.9315  0.0311
   67SOL    HW1  213   2.359   0.414   2.936 -0.5128 -0.8583  0.2073
   67SOL    HW2  214   2.317   0.432   2.791 -1.5458 -0.7950  0.5117
   68SOL     OW  215   2.173   1.660   1.934  0.5695 -0.1450  0.4886
   68SOL    HW1  216   2.164   1.628   1.844  0.3872 -3.2483  1.4684
   68SOL    HW2  217   2.267   1.653   1.953  0.3628 -1.7290  1.1646
   69SOL     OW  218   1.769   0.831   1.248 -0.2759  0.2041  0.0829
   69SOL    HW1  219   1.808   0.786   1.173 -0.6599  1.1276 -0.7001
   69SOL    HW2  220   1.842   0.847   1.308  0.4167  1.0961 -0.9451
   70SOL     OW  221   2.111   2.834   0.807 -0.0077 -0.0473 -1.2352
   70SOL    HW1  222   2.044   2.771   0.831 -0.2654  0.8025  0.4262
   70SOL    HW2  223   2.191   2.782   0.796  0.0985 -0.5869  1.3807
   71SOL     OW  224   1.559   2.688   0.984  0.1784 -0.4377 -0.5683
   71SOL    HW1  225   1.490   2.724   0.928 -0.0143 -0.3763 -0.3018
   71SOL    HW2  226   1.513   2.624   1.039  0.5060 -1.0281 -0.9804
   72SOL     OW  227   1.397   2.508   1.126 -0.1857 -0.6101 -0.6239
   72SOL    HW1  228   1.315   2.458   1.132 -0.2926 -0.5890 -1.5895
   72SOL    HW2  229   1.450   2.478   1.199 -1.9582  1.1025  1.4923
   73SOL     OW  230   2.858   2.524   0.704  0.0434 -0.2600 -0.0171
   73SOL    HW1  231   2.882   2.483   0.621 -0.2309  0.7513 -0.6114
   73SOL    HW2  232   2.836   2.450   0.762 -0.0868 -0.9579 -0.9400
   74SOL     OW  233   2.669   1.278   2.166  0.3696  0.0831 -0.2427
   74SOL    HW1  234   2.689   1.360   2.211 -2.4802  0.8542 -0.2189
   74SOL    HW2  235   2.598   1.239   2.218  0.0050 -1.1771 -1.6208
   75SOL     OW  236   0.959   2.323   1.153  0.4078  0.1926  0.0769
   75SOL    HW1  237   0.951   2.229   1.167  0.5983 -0.0275 -1.2487
   75SOL    HW2  238   1.053   2.341   1.162  0.7051 -0.1508 -1.9909
   76SOL     OW  239   1.832   1.170   1.178 -0.4512  0.1521 -0.4151
   76SOL    HW1  240   1.782   1.240   1.136  1.1095  1.6636  0.1063
   76SOL    HW2  241   1.800   1.089   1.138 -1.7097  1.2303 -1.6710
   77SOL     OW  242   2.301   2.790   2.545  0.2682  0.2926 -0.4895
   77SOL    HW1  243   2.306   2.786   2.449 -0.2153 -0.6308 -0.4867
   77SOL    HW2  244   2.385   2.757   2.575  0.1173 -0.2108 -0.5993
   78SOL     OW  245   1.945   2.807   2.461 -0.4475 -0.7538 -0.4762
   78SOL    HW1  246   1.991   2.740   2.511  0.6322  1.1720  1.2994
   78SOL    HW2  247   1.855   2.803   2.493 -0.2305 -0.9205  0.1336
   79SOL     OW  248   2.191   2.189   2.232  0.1156 -0.1833  0.2133
   79SOL    HW1  249   2.217   2.161   2.145 -0.1180  1.9510 -0.6144
   79SOL    HW2  250   2.111   2.140   2.250  0.6117 -1.2494 -0.4019
   80SOL     OW  251   2.068   1.880   0.247  0.5358 -0.2046  0.1866
   80SOL    HW1  252   2.116   1.806   0.285  1.3862 -0.8796 -2.0802
   80SOL    HW2  253   2.099   1.956   0.298  0.2771 -1.2420  1.9908
   81SOL     OW  254   1.986   1.999   2.263 -0.0332 -0.0060 -0.1324
   81SOL    HW1  255   1.979   1.920   2.210  0.5737  0.2712 -0.6342
   81SOL    HW2  256   1.897   2.034   2.265 -0.5428 -1.2550  0.9897
   82SOL     OW  257   1.900   2.629   0.835  0.2992  0.0219  0.0840
   82SOL    HW1  258   1.848   2.551   0.814  0.4243 -0.0525  0.0474
   82SOL    HW2  259   1.848   2.702   0.804  0.0212 -0.0260  0.4287
   83SOL     OW  260   0.625   0.167   2.054  0.3320 -0.3173 -0.5036
   83SOL    HW1  261   0.580   0.171   2.139 -0.4712  1.7081 -0.9532
   83SOL    HW2  262   0.609   0.253   2.015 -0.0060 -1.4554 -3.0691
   84SOL     OW  263   0.942   0.385   1.386 -0.3958 -0.1386 -0.2128
   84SOL    HW1  264   1.009   0.385   1.455  1.2663  1.9224 -1.6912
   84SOL    HW2  265   0.981   0.333   1.316 -1.3144 -0.7453 -0.2803
   85SOL     OW  266   1.568   1.448   0.568 -0.4250  0.3827  0.1764
   85SOL    HW1  267   1.617   1.426   0.489 -0.4474 -0.0920  0.2940
   85SOL    HW2  268   1.603   1.533   0.594 -0.8955  0.8660 -0.7176
   86SOL     OW  269   0.190   2.454   1.844  0.4225 -0.3084  0.0329
   86SOL    HW1  270   0.202   2.415   1.931  0.3110 -0.6099 -0.0842
   86SOL    HW2  271   0.215   2.384   1.783  2.7521  0.6076 -0.1807
   87SOL     OW  272   0.203   0.228   0.391 -0.0444  0.1921 -0.6239
   87SOL    HW1  273   0.221   0.316   0.358  2.4320 -0.1845 -0.4692
   87SOL    HW2  274   0.125   0.238   0.445  1.0225  2.6753  0.6289
   88SOL     OW  275   0.727   2.131   0.788 -0.1927 -0.5275 -0.4616
   88SOL    HW1  276   0.675   2.062   0.829 -0.3372  0.5021  1.2164
   88SOL    HW2  277   0.664   2.187   0.744 -0.6210  0.7909  1.6771
   89SOL     OW  278   0.411   1.609   1.243  0.3020 -0.1074 -0.3313
   89SOL    HW1  279   0.454   1.576   1.165 -0.4821 -1.3540 -0.2565
   89SOL    HW2  280   0.475   1.668   1.283  0.6954  0.5885 -1.9195
   90SOL     OW  281   1.444   0.064   1.155 -1.1307  0.2212  0.2272
   90SOL    HW1  282   1.513   0.062   1.089 -2.9296  3.5020 -1.9931
   90SOL    HW2  283   1.364   0.040   1.108 -2.2914  1.4225  1.4884
   91SOL     OW  284   1.290   0.767   1.018 -0.5358  0.1801  0.1411
   91SOL    HW1  285   1.228   0.784   0.946 -1.3313  0.9174  0.9595
   91SOL    HW2  286   1.365   0.824   0.999 -0.9588  0.7505  0.1329
   92SOL     OW  287   2.468   0.006   1.365 -0.2929 -0.4397  0.5118
   92SOL    HW1  288   2.515   0.067   1.424 -0.2468 -1.7999  1.9370
   92SOL    HW2  289   2.456   0.056   1.284  0.0235  1.3582  1.5205
   93SOL     OW  290   0.391   2.197   1.736 -0.2117 -0.0558 -0.1667
   93SOL    HW1  291   0.409   2.249   1.815  0.0420 -0.1824 -0.1419
   93SOL    HW2  292   0.463   2.218   1.676  0.3677 -1.0284  0.1644
   94SOL     OW  293   2.095   0.157   0.634  0.4410 -0.0193 -0.1306
   94SOL    HW1  294   2.112   0.087   0.697 -0.6998  0.7547  1.1155
   94SOL    HW2  295   2.041   0.116   0.566  2.1319 -0.9960 -0.9405
   95SOL     OW  296   2.561   0.675   1.863  0.2124  0.1185 -0.1005
   95SOL    HW1  297   2.609   0.688   1.945  0.2569 -0.6651  0.0107
   95SOL    HW2  298   2.616   0.614   1.814  0.2453  0.6804 -0.7680
   96SOL     OW  299   2.141   1.644   0.907 -0.1579  0.1276  0.1785
   96SOL    HW1  300   2.205   1.577   0.884  0.1603  0.2126  0.7799
   96SOL    HW2  301   2.067   1.596   0.943 -0.2280  0.0572 -0.0601
   97SOL     OW  302   2.442   0.551   0.703  0.3400  0.7545  0.2738
   97SOL    HW1  303   2.376   0.496   0.660  0.6412  1.2162 -0.8134
   97SOL    HW2  304   2.509   0.489   0.731  0.4348  0.4980 -0.4856
   98SOL     OW  305   2.685   2.464   1.180 -0.0146 -0.4364  0.5157
   98SOL    HW1  306   2.770   2.425   1.201  0.4325  0.1383 -0.1830
   98SOL    HW2  307   2.680   2.541   1.236  0.0539 -0.3129  0.3531
   99SOL     OW  308   0.928   1.067   0.120  0.3820  0.3629  0.1633
   99SOL    HW1  309   0.979   1.014   0.181  1.7402  0.9797 -0.4093
   99SOL    HW2  310   0.911   1.009   0.046  0.1266  0.1246  0.4020
  100SOL     OW  311   2.645   1.051   1.475  0.1607 -0.0664 -0.0087
  100SOL    HW1  312   2.645   1.017   1.564 -0.5799 -1.0965 -0.3859
  100SOL    HW2  313   2.689   0.984   1.423 -0.6244 -0.1112 -0.6364
  101SOL     OW  314   0.489   1.520   2.657  0.4822  0.5162  0.0595
  101SOL    HW1  315   0.518   1.429   2.660 -2.7925 -0.6579  0.4829
  101SOL    HW2  316   0.549   1.566   2.715  0.7080 -1.9178  1.9310
  102SOL     OW  317   1.522   2.364   2.040 -0.0334 -0.5351  0.0225
  102SOL    HW1  318   1.607   2.358   1.995  0.7010  0.2979  1.2529
  102SOL    HW2  319   1.496   2.456   2.029 -1.0729 -0.9079 -0.8195
  103SOL     OW  320   2.654   0.975   1.961 -0.0195  0.0127  0.1128
  103SOL    HW1  321   2.574   1.020   1.936 -0.6866 -1.1538  0.0537
  103SOL    HW2  322   2.714   0.990   1.888 -0.4417  0.2680 -0.1824
  104SOL     OW  323   0.777   2.307   0.164 -0.9500  0.0101 -0.0057
  104SOL    HW1  324   0.765   2.279   0.074 -0.8889  2.4766 -0.8751
  104SOL    HW2  325   0.872   2.316   0.174 -0.9964  0.4423  0.0619
  105SOL     OW  326   1.852   2.021   0.567 -0.4428  0.0630  0.5508
  105SOL    HW1  327   1.798   1.950   0.602  0.8479  0.0264  2.6418
  105SOL    HW2  328   1.859   2.002   0.474 -0.7507 -2.1407  0.9224
  106SOL     OW  329   1.234   2.370   0.131  0.3818 -0.3288  0.1054
  106SOL    HW1  330   1.144   2.398   0.147  0.3600 -0.2544 -0.1456
  106SOL    HW2  331   1.243   2.371   0.036  0.2189 -1.6966  0.0566
  107SOL     OW  332   0.198   1.141   1.592  0.2812 -0.0668 -0.1348
  107SOL    HW1  333   0.214   1.229   1.624 -0.7527  0.6598 -1.5008
  107SOL    HW2  334   0.278   1.093   1.612  1.4555  1.5719 -0.6840
  108SOL     OW  335   2.000   0.416   0.025  0.5066  0.2285 -0.0596
  108SOL    HW1  336   2.094   0.431   0.030  0.7547 -0.8507 -1.0866
  108SOL    HW2  337   1.982   0.407  -0.069 -1.1124  3.3039 -0.2040
  109SOL     OW  338   2.065   1.707   1.225  0.6523  0.0326 -0.0822
  109SOL    HW1  339   2.114   1.738   1.149  0.1496 -0.9116 -0.8178
  109SOL    HW2  340   2.132   1.679   1.287  1.1784  3.2777  1.0053
  110SOL     OW  341   0.098   1.066   1.048  0.4342 -1.0305  0.5855
  110SOL    HW1  342   0.166   1.090   1.111 -0.5614  0.6037  1.1202
  110SOL    HW2  343   0.017   1.067   1.099 -0.6703  2.0817 -0.9275
  111SOL     OW  344   2.311   2.550   2.835  0.0796  0.0906 -0.0436
  111SOL    HW1  345   2.401   2.535   2.804 -0.5995  0.4617 -2.4466
  111SOL    HW2  346   2.320   2.618   2.901  1.4018  1.7855 -1.8477
  112SOL     OW  347   0.432   2.381   2.592  0.3821  0.4105 -0.0081
  112SOL    HW1  348   0.359   2.320   2.582  1.2602 -1.0761  2.0950
  112SOL    HW2  349   0.499   2.348   2.532 -0.7728  2.1868 -2.4932
  113SOL     OW  350   1.296   1.469   1.184  0.3800 -0.2440  0.3512
  113SOL    HW1  351   1.313   1.382   1.221  1.2521  0.4603  1.7150
  113SOL    HW2  352   1.381   1.513   1.186 -0.2965  1.1259  1.0963
  114SOL     OW  353   2.408   1.045   2.207  0.3066 -0.2296  0.4364
  114SOL    HW1  354   2.494   1.015   2.237 -0.8411 -2.4200  1.8122
  114SOL    HW2  355   2.373   0.970   2.159 -0.4406  1.0147 -1.0060
  115SOL     OW  356   2.427   0.435   1.955  0.5061 -0.0801  0.0629
  115SOL    HW1  357   2.356   0.427   1.891  0.9797 -3.1266 -0.2597
  115SOL    HW2  358   2.499   0.474   1.906 -0.7874  2.8516  0.3378
  116SOL     OW  359   2.325   0.925   1.237 -0.6215  0.0647 -0.3154
  116SOL    HW1  360   2.295   0.835   1.246 -0.6150  0.2076  1.5046
  116SOL    HW2  361   2.245   0.978   1.245 -0.3375  0.3038  1.3166
  117SOL     OW  362   1.674   2.400   1.805 -0.2235 -0.6609 -0.2465
  117SOL    HW1  363   1.673   2.329   1.740 -0.1002  0.1643 -1.1754
  117SOL    HW2  364   1.687   2.479   1.753 -1.5289  0.1730  0.6449
  118SOL     OW  365   2.622   2.369   0.916 -0.0615  0.4879 -0.2038
  118SOL    HW1  366   2.648   2.390   1.006 -1.5457 -0.8105  0.5977
  118SOL    HW2  367   2.686   2.304   0.886 -0.0733  0.2539  0.2657
  119SOL     OW  368   2.268   2.818   1.547  0.2935 -0.0615  0.3854
  119SOL    HW1  369   2.324   2.799   1.623  2.3007  0.9505 -0.7462
  119SOL    HW2  370   2.329   2.830   1.475 -1.3301  1.9094 -0.7838
  120SOL     OW  371   0.770   1.745   0.245  0.4437 -0.2024  0.3897
  120SOL    HW1  372   0.772   1.686   0.170  1.6008  1.0927 -0.6517
  120SOL    HW2  373   0.740   1.829   0.210 -1.1194 -0.1138  1.8205
  121SOL     OW  374   1.039   0.921   2.021 -0.1815 -0.4317  0.2919
  121SOL    HW1  375   1.086   0.857   1.968  0.6846 -1.1450  1.8594
  121SOL    HW2  376   1.007   0.985   1.958 -0.5163 -2.0469 -1.2526
  122SOL     OW  377   0.643   1.540   0.628  0.6303 -0.2660  0.0017
  122SOL    HW1  378   0.615   1.548   0.537  0.7764 -1.0381 -0.1190
  122SOL    HW2  379   0.694   1.459   0.630 -1.4181 -1.6450  1.2284
  123SOL     OW  380   2.705   2.189   2.577 -0.0832  0.0865 -0.3167
  123SOL    HW1  381   2.675   2.174   2.488 -1.2118 -1.0767  0.2261
  123SOL    HW2  382   2.628   2.174   2.631  0.8913 -0.5110  0.9545
  124SOL     OW  383   1.940   2.301   0.976  0.1099 -0.2655 -0.4500
  124SOL    HW1  384   1.953   2.289   0.882  3.2254  1.4768 -0.3585
  124SOL    HW2  385   2.005   2.245   1.017 -1.1214 -0.9067  0.7403
  125SOL     OW  386   1.291   2.667   0.010  0.2731 -0.0279 -0.0995
  125SOL    HW1  387   1.379   2.673  -0.027 -0.6273  1.1722 -2.2367
  125SOL    HW2  388   1.284   2.743   0.068  0.5002  0.1460 -0.2961
  126SOL     OW  389   1.279   0.613   2.589 -0.0365  0.7011 -0.3749
  126SOL    HW1  390   1.249   0.522   2.590  3.8103 -0.7313  0.7541
  126SOL    HW2  391   1.295   0.634   2.681 -1.7325  2.9648 -0.4987
  127SOL     OW  392   1.612   2.481   2.541  0.4978  0.3305 -0.3827
  127SOL    HW1  393   1.704   2.469   2.520  0.3769  2.6316 -2.6358
  127SOL    HW2  394   1.566   2.469   2.458 -1.2558 -0.4042  0.6125
  128SOL     OW  395   0.128   1.541   2.701 -0.3255 -0.0351  0.3816
  128SOL    HW1  396   0.173   1.613   2.745 -0.5751 -0.2647  1.0265
  128SOL    HW2  397   0.136   1.467   2.762  0.9433 -0.8969 -0.7462
  129SOL     OW  398   0.162   1.526   0.335  0.0340  0.2913  0.1632
  129SOL    HW1  399   0.182   1.539   0.427  1.2680 -1.3250  0.1561
  129SOL    HW2  400   0.095   1.458   0.334  0.1732  0.1536 -0.1341
  130SOL     OW  401   0.078   0.573   0.257 -0.2564  0.2422  0.5659
  130SOL    HW1  402   0.018   0.628   0.307 -0.6429  0.1501  0.2119
  130SOL    HW2  403   0.022   0.506   0.217 -0.1467  1.0571 -1.0260
  131SOL     OW  404   0.107   2.594   2.251 -0.3922  0.1058 -0.0914
  131SOL    HW1  405   0.199   2.617   2.236 -0.1663  0.4881  1.6496
  131SOL    HW2  406   0.096   2.510   2.206  0.7533  0.1452 -0.4858
  132SOL     OW  407   1.756   2.687   1.333 -0.2900 -0.3393 -0.4610
  132SOL    HW1  408   1.825   2.627   1.304 -1.4098 -0.5042 -3.1289
  132SOL    HW2  409   1.675   2.645   1.304 -1.3581  0.9210  0.5720
  133SOL     OW  410   0.704   1.257   0.708 -0.1970  0.1647 -0.4065
  133SOL    HW1  411   0.647   1.209   0.648  0.6289 -1.3055 -0.0600
  133SOL    HW2  412   0.651   1.269   0.786 -0.8167  0.9004 -0.9202
  134SOL     OW  413   1.282   1.909   0.302  0.2066 -0.1124  0.0597
  134SOL    HW1  414   1.258   2.000   0.323  3.4798  0.3811  2.4403
  134SOL    HW2  415   1.360   1.917   0.248  0.1059 -1.5501 -0.3405
  135SOL     OW  416   2.892   0.329   1.593 -0.2828 -0.1887  0.0545
  135SOL    HW1  417   2.967   0.296   1.643  0.1862  0.3417 -0.2853
  135SOL    HW2  418   2.931   0.371   1.517 -1.0173 -1.6828 -1.2019
  136SOL     OW  419   2.194   1.923   0.985 -0.1329  0.1549 -0.4643
  136SOL    HW1  420   2.273   1.945   0.936  1.3601 -1.1592  1.2519
  136SOL    HW2  421   2.158   1.846   0.941  0.0949  0.1568 -0.6529
  137SOL     OW  422   2.825   0.381   0.076  0.5983 -0.4891 -0.6170
  137SOL    HW1  423   2.733   0.358   0.061  0.6585 -1.4921  0.3712
  137SOL    HW2  424   2.866   0.299   0.103  1.7005  0.0348 -0.6282
  138SOL     OW  425   2.162   1.023   0.451 -0.1447 -0.7316  0.5893
  138SOL    HW1  426   2.114   0.989   0.375  1.5911 -1.0834 -0.4252
  138SOL    HW2  427   2.253   1.028   0.421  0.2771  1.1801  1.9639
  139SOL     OW  428   1.277   1.262   1.979  0.2498 -0.3597 -0.1207
  139SOL    HW1  429   1.251   1.192   1.919  4.4893 -1.2925 -1.1591
  139SOL    HW2  430   1.320   1.217   2.052 -2.1293  0.9650  2.2979
  140SOL     OW  431   2.866   2.599   0.156  0.3249 -0.9347  0.5650
  140SOL    HW1  432   2.798   2.588   0.222  0.8795 -0.2818  1.2762
  140SOL    HW2  433   2.906   2.683   0.177 -0.0069 -0.3154 -1.1135
  141SOL     OW  434   0.944   2.472   2.811  0.6312 -0.6099 -0.4860
  141SOL    HW1  435   0.867   2.494   2.863  0.6154 -1.8018  0.0453
  141SOL    HW2  436   0.993   2.553   2.804 -0.6717  0.1738 -0.8431
  142SOL     OW  437   2.105   1.087   1.182  0.2455  0.2724  0.1040
  142SOL    HW1  438   2.031   1.148   1.189 -0.2898 -0.3529  0.0325
  142SOL    HW2  439   2.075   1.021   1.120  1.5643  0.9759 -1.3381
  143SOL     OW  440   1.402   1.711   2.882  0.1604  0.0854 -0.1853
  143SOL    HW1  441   1.371   1.709   2.973  0.5445  1.0326 -0.0143
  143SOL    HW2  442   1.451   1.630   2.871  1.0704  0.4775  0.8171
  144SOL     OW  443   0.696   1.132   0.232 -0.1880 -0.3811 -0.1068
  144SOL    HW1  444   0.777   1.114   0.184  0.7459  0.4696  1.0826
  144SOL    HW2  445   0.711   1.217   0.274 -1.4218 -0.5452  0.7194
  145SOL     OW  446   0.476   1.062   1.537 -0.1320  0.4720 -0.2419
  145SOL    HW1  447   0.457   1.047   1.444  0.9196  0.3017 -0.4388
  145SOL    HW2  448   0.534   1.138   1.538 -0.2668  0.5736  0.2968
  146SOL     OW  449   1.336   2.496   0.385  0.7240  0.1130 -0.2323
  146SOL    HW1  450   1.327   2.455   0.299  0.4350  4.4349 -2.5504
  146SOL    HW2  451   1.248   2.525   0.407  0.9682 -0.1035  1.0961
  147SOL     OW  452   0.195   1.286   1.254  0.4152 -0.3596 -0.0086
  147SOL    HW1  453   0.268   1.301   1.314  0.8270 -2.8108  0.2142
  147SOL    HW2  454   0.125   1.251   1.309  0.0243 -0.5405 -0.6069
  148SOL     OW  455   1.043   0.739   1.524 -0.4658  0.4335 -0.2002
  148SOL    HW1  456   0.991   0.670   1.483 -1.2593 -0.3096  1.9070
  148SOL    HW2  457   1.129   0.733   1.482 -0.6196 -1.6021 -0.3162
  149SOL     OW  458   2.839   1.383   2.890 -0.0974 -0.2101 -0.1602
  149SOL    HW1  459   2.826   1.464   2.840 -0.4203 -0.0578  0.1629
  149SOL    HW2  460   2.923   1.397   2.935 -1.2140  0.9351  1.7050
  150SOL     OW  461   0.828   2.325   1.423 -0.4342  0.2561  0.5310
  150SOL    HW1  462   0.794   2.236   1.421  0.7093 -0.1968  0.4954
  150SOL    HW2  463   0.826   2.353   1.331  0.1892 -0.1234  0.3993
  151SOL     OW  464   2.851   0.268   0.529  0.1066  0.4191  1.0226
  151SOL    HW1  465   2.862   0.331   0.601  0.7474 -0.0379  1.3387
  151SOL    HW2  466   2.759   0.243   0.532 -0.7539  2.9685 -0.4899
  152SOL     OW  467   0.400   1.766   0.516 -0.4864  0.1467  0.4513
  152SOL    HW1  468   0.421   1.751   0.608  1.2892 -0.1170  0.0395
  152SOL    HW2  469   0.439   1.851   0.496 -0.5711  0.0513 -0.1340
  153SOL     OW  470   1.070   2.083   0.885  0.1284 -0.2754  0.1203
  153SOL    HW1  471   0.997   2.024   0.906 -0.1090 -0.0389 -0.0327
  153SOL    HW2  472   1.085   2.069   0.791 -0.9360  1.0178 -0.2615
  154SOL     OW  473   0.508   2.276   1.373  0.8579  0.2085  0.3701
  154SOL    HW1  474   0.546   2.289   1.286  1.5284 -0.0754  0.6142
  154SOL    HW2  475   0.418   2.308   1.365  0.4994 -1.0276 -0.7826
  155SOL     OW  476   1.088   0.417   2.391  0.2672  0.5786 -0.0463
  155SOL    HW1  477   1.127   0.422   2.304  1.1984 -1.2913  0.2014
  155SOL    HW2  478   1.154   0.372   2.444 -0.3037  1.6261  1.6300
  156SOL     OW  479   2.685   2.317   1.760 -0.0704  0.1907 -0.0031
  156SOL    HW1  480   2.626   2.351   1.828 -0.3812  0.9989 -0.6710
  156SOL    HW2  481   2.732   2.393   1.728  0.4344 -0.2663 -0.3660
  157SOL     OW  482   1.318   0.845   0.460 -0.3696 -0.3713 -0.2028
  157SOL    HW1  483   1.335   0.809   0.547 -0.2423  0.1541 -0.0097
  157SOL    HW2  484   1.403   0.841   0.416 -0.0768  0.8243  0.2369
  158SOL     OW  485   1.262   2.174   0.331 -0.6732  0.5785  0.0262
  158SOL    HW1  486   1.357   2.170   0.342 -0.8301 -0.5960  1.2465
  158SOL    HW2  487   1.248   2.232   0.257  1.0302  0.2477 -0.5776
  159SOL     OW  488   2.813   1.958   0.836  0.4760 -0.3010 -0.1866
  159SOL    HW1  489   2.900   1.976   0.800  0.8681 -1.7112  0.0315
  159SOL    HW2  490   2.808   2.012   0.915  1.0535 -0.0290 -0.3299
  160SOL     OW  491   1.915   1.541   2.718  0.1292  0.1926 -0.0365
  160SOL    HW1  492   1.977   1.614   2.722 -0.7811  1.1235 -1.8145
  160SOL    HW2  493   1.901   1.527   2.624  0.3625 -2.3727  0.2565
  161SOL     OW  494   0.439   0.383   1.491 -0.0678  0.2852 -0.0625
  161SOL    HW1  495   0.479   0.380   1.578  0.0200  0.0926 -0.1083
  161SOL    HW2  496   0.512   0.365   1.430 -0.7070 -3.3648 -0.0101
  162SOL     OW  497   2.647   1.332   1.007 -0.1514 -0.3546 -0.1247
  162SOL    HW1  498   2.590   1.264   1.042  0.0992 -0.5722 -0.1385
  162SOL    HW2  499   2.716   1.343   1.072  0.1724 -0.5775 -0.4225
  163SOL     OW  500   0.761   0.482   1.603  0.0715 -0.7092 -0.1197
  163SOL    HW1  501   0.727   0.395   1.625  2.3293 -2.1009 -1.7790
  163SOL    HW2  502   0.828   0.466   1.537 -0.0581  2.4048 -1.1627
  164SOL     OW  503   0.186   2.120   1.346 -0.0980 -0.5067  0.0201
  164SOL    HW1  504   0.190   2.215   1.346 -1.0211 -0.4574 -0.1364
  164SOL    HW2  505   0.271   2.092   1.314 -0.5454  0.3226 -2.0725
  165SOL     OW  506   0.992   1.965   1.792 -0.3983  0.1669 -0.5614
  165SOL    HW1  507   1.029   1.947   1.879 -0.3590 -0.4188 -0.6976
  165SOL    HW2  508   1.002   2.060   1.781 -0.3170  0.2312  0.0337
  166SOL     OW  509   1.837   0.252   2.240  0.3164 -0.1517  0.2869
  166SOL    HW1  510   1.775   0.187   2.208 -1.0739  1.8007 -1.1804
  166SOL    HW2  511   1.798   0.285   2.321  0.4048 -0.2489  0.3700
  167SOL     OW  512   2.646   1.170   0.020  0.7604  0.4846  0.2158
  167SOL    HW1  513   2.576   1.224  -0.016  0.2453 -1.6754 -2.3402
  167SOL    HW2  514   2.726   1.217  -0.002  0.3033  0.6108 -1.3077
  168SOL     OW  515   2.208   0.616   1.262  0.0027 -0.1617 -0.1658
  168SOL    HW1  516   2.177   0.632   1.351  0.5993  2.2427 -0.3192
  168SOL    HW2  517   2.133   0.578   1.217 -0.6423 -0.4061  1.0633
  169SOL     OW  518   0.731   2.823   1.858 -0.3511 -0.1969 -0.3375
  169SOL    HW1  519   0.658   2.878   1.886 -0.7374 -0.2999 -1.1247
  169SOL    HW2  520   0.714   2.805   1.766  1.0024  0.2957 -0.7072
  170SOL     OW  521   2.635   1.557   1.876  0.2843  0.3258  0.3519
  170SOL    HW1  522   2.719   1.524   1.843  0.5292 -0.3417  1.5883
  170SOL    HW2  523   2.572   1.533   1.808  1.1589  1.3669 -0.8748
  171SOL     OW  524   1.137   0.606   0.455  0.4873 -0.2408  0.7388
  171SOL    HW1  525   1.070   0.667   0.486 -0.2662  0.0925 -1.3649
  171SOL    HW2  526   1.203   0.662   0.414 -0.1687 -0.7587 -1.1305
  172SOL     OW  527   2.796   0.033   1.092 -0.6865 -0.0886  0.3476
  172SOL    HW1  528   2.844   0.111   1.118  0.0583 -1.1213  2.2942
  172SOL    HW2  529   2.712   0.065   1.061  0.1541  1.5557 -0.3735
  173SOL     OW  530   0.937   1.584   0.948  0.0077 -0.1180  0.3885
  173SOL    HW1  531   0.985   1.633   1.014 -2.4531 -0.1335  2.3585
  173SOL    HW2  532   0.879   1.527   0.998 -0.4282 -1.7557 -1.8259
  174SOL     OW  533   1.772   0.076   1.468  0.1900  0.4149  0.2048
  174SOL    HW1  534   1.683   0.096   1.440  0.2578 -0.6359 -0.8480
  174SOL    HW2  535   1.783  -0.017   1.447  0.6939 -0.1297  2.6068
  175SOL     OW  536   1.349   1.069   2.425 -0.6981 -0.1580  0.2448
  175SOL    HW1  537   1.397   1.114   2.356 -1.2371 -0.1974 -0.1587
  175SOL    HW2  538   1.257   1.079   2.401 -0.8444 -1.0650  0.3990
  176SOL     OW  539   0.620   2.857   0.485  0.2914  0.2081  0.3949
  176SOL    HW1  540   0.574   2.778   0.514  0.3959 -0.7875 -1.9079
  176SOL    HW2  541   0.713   2.837   0.497  0.2672  1.1871  2.5683
  177SOL     OW  542   2.054   0.777   2.464 -0.0142  0.2842 -0.7377
  177SOL    HW1  543   2.044   0.753   2.556 -0.3989  1.0644 -0.5688
  177SOL    HW2  544   2.126   0.722   2.433 -1.3904 -1.6757 -0.5893
  178SOL     OW  545   1.968   1.363   0.166 -0.5067 -0.2282 -0.3340
  178SOL    HW1  546   1.994   1.332   0.253 -1.6268 -2.6699 -0.7762
  178SOL    HW2  547   2.050   1.388   0.124  0.2014 -0.2870  0.9579
  179SOL     OW  548   0.918   1.768   1.338 -0.0302 -0.6133 -0.3035
  179SOL    HW1  549   0.968   1.702   1.291  0.4708 -0.3291 -0.1700
  179SOL    HW2  550   0.960   1.773   1.424  0.7877  0.8470 -0.7665
  180SOL     OW  551   2.734   0.375   1.144 -0.3076  0.1959 -0.1796
  180SOL    HW1  552   2.670   0.311   1.173  0.5249 -1.0037 -0.8987
  180SOL    HW2  553   2.818   0.342   1.177  0.1492  0.8924 -0.6121
  181SOL     OW  554   2.774   1.628   2.777 -0.1905  0.0307 -0.1480
  181SOL    HW1  555   2.852   1.670   2.741  0.5850 -1.3941 -0.2018
  181SOL    HW2  556   2.706   1.695   2.772  0.2406  0.3867 -2.8984
  182SOL     OW  557   1.124   2.666   2.186 -0.1132  0.1151  0.0395
  182SOL    HW1  558   1.144   2.759   2.198  1.3087 -0.3443  1.7307
  182SOL    HW2  559   1.029   2.661   2.196 -0.2395  1.4098 -0.2913
  183SOL     OW  560   0.956   1.743   2.610 -0.1140 -0.0871 -0.0030
  183SOL    HW1  561   0.986   1.818   2.559  0.4793 -0.7206 -0.5987
  183SOL    HW2  562   1.033   1.715   2.660 -0.5012  0.0872  0.7131
  184SOL     OW  563   0.403   0.372   2.529  0.3311 -0.4774 -0.2601
  184SOL    HW1  564   0.423   0.458   2.567 -1.4313  0.6324 -1.6765
  184SOL    HW2  565   0.447   0.310   2.586  1.5491  1.3538  0.9025
  185SOL     OW  566   2.318   0.660   1.707  0.1472 -0.2392  0.3798
  185SOL    HW1  567   2.392   0.663   1.767  0.3942 -0.1991  0.0785
  185SOL    HW2  568   2.355   0.687   1.623  0.0645 -1.3681 -0.0469
  186SOL     OW  569   0.706   1.854   2.523 -0.1168  0.1866 -0.2303
  186SOL    HW1  570   0.784   1.817   2.565  0.4453  0.0645 -1.3496
  186SOL    HW2  571   0.696   1.803   2.443 -1.0978  0.4975 -0.3146
  187SOL     OW  572   2.104   0.101   2.573  0.4034  0.2027  0.0880
  187SOL    HW1  573   2.046   0.055   2.512  0.7813  2.2654 -1.9621
  187SOL    HW2  574   2.175   0.039   2.591 -0.5045 -0.9999 -0.3300
  188SOL     OW  575   1.742   0.312   0.637  0.0699  0.1252  0.1665
  188SOL    HW1  576   1.774   0.263   0.712 -2.8863  0.7225  1.9581
  188SOL    HW2  577   1.723   0.245   0.571 -0.1841 -0.7357  1.1030
  189SOL     OW  578   0.843   2.041   1.461  0.0032  0.0162  0.7926
  189SOL    HW1  579   0.933   2.034   1.494  0.2703  0.0223  0.0887
  189SOL    HW2  580   0.833   1.965   1.404 -0.4196  0.0500  0.8206
  190SOL     OW  581   1.825   0.700   0.981  0.1182 -0.4029 -0.4760
  190SOL    HW1  582   1.765   0.625   0.979 -1.1547  0.5915 -1.4818
  190SOL    HW2  583   1.878   0.691   0.902  0.3609 -0.5592 -0.2946
  191SOL     OW  584   0.702   0.857   1.483 -0.5964  0.5894  0.2116
  191SOL    HW1  585   0.765   0.833   1.550 -0.2986  2.1458  0.5325
  191SOL    HW2  586   0.620   0.872   1.531 -1.4591 -1.9593 -0.2604
  192SOL     OW  587   1.393   1.977   0.624  0.9680  0.0122  0.0482
  192SOL    HW1  588   1.422   1.886   0.634  2.5946  0.3345 -1.2498
  192SOL    HW2  589   1.467   2.021   0.584  0.6879  2.2359  1.7895
  193SOL     OW  590   1.482   0.686   1.783 -0.6166  0.1515  0.1978
  193SOL    HW1  591   1.431   0.765   1.799  0.0451  0.5864  0.2392
  193SOL    HW2  592   1.557   0.717   1.731 -1.3739 -0.7821 -1.5217
  194SOL     OW  593   2.268   0.524   2.409  0.6455  0.7688  0.3839
  194SOL    HW1  594   2.329   0.510   2.337  0.7860 -0.3551  0.7029
  194SOL    HW2  595   2.186   0.484   2.380  0.8636 -0.1895  1.0580
  195SOL     OW  596   0.425   2.846   2.143 -0.1947 -0.4757  0.1268
  195SOL    HW1  597   0.518   2.845   2.122 -0.2648  2.3285 -0.7757
  195SOL    HW2  598   0.420   2.873   2.234 -0.1239 -0.3383  0.0901
  196SOL     OW  599   1.646   0.494   1.053  0.0306  0.2646  0.3968
  196SOL    HW1  600   1.661   0.414   1.102 -0.4666 -1.0159 -1.4120
  196SOL    HW2  601   1.559   0.523   1.079  0.1082  0.0817  0.8645
  197SOL     OW  602   1.416   0.782   2.880 -0.6683 -0.5035  0.1174
  197SOL    HW1  603   1.367   0.826   2.810 -1.7466 -1.9717 -0.0915
  197SOL    HW2  604   1.359   0.789   2.957 -0.5220 -0.8995  0.2651
  198SOL     OW  605   2.088   0.659   2.064 -0.1207 -0.3344 -0.0738
  198SOL    HW1  606   1.997   0.669   2.036  0.3048 -0.0953 -1.4676
  198SOL    HW2  607   2.087   0.584   2.123 -1.3608  0.2430  0.6794
  199SOL     OW  608   0.017   1.240   2.482  0.1985 -0.5506 -0.0920
  199SOL    HW1  609   0.022   1.334   2.462 -1.0181 -0.4504  0.0205
  199SOL    HW2  610   0.090   1.225   2.543 -0.0546  0.4870  0.4985
  200SOL     OW  611   0.539   1.678   1.547 -0.2511 -0.3338  0.0797
  200SOL    HW1  612   0.449   1.697   1.573  0.1661  3.9945 -0.8490
  200SOL    HW2  613   0.593   1.725   1.611  1.0771  1.8726 -2.4812
  201SOL     OW  614   1.375   1.454   2.277  0.2028 -0.2998 -0.1725
  201SOL    HW1  615   1.288   1.418   2.297  0.1793 -0.2484 -0.1825
  201SOL    HW2  616   1.392   1.424   2.187  0.3253 -0.5630 -0.0630
  202SOL     OW  617   0.012   2.026   2.390  0.5442 -0.1831 -0.8800
  202SOL    HW1  618   0.079   1.958   2.404  0.2236 -0.4536 -0.6529
  202SOL    HW2  619  -0.065   1.993   2.435  0.4225  0.3973 -0.6612
  203SOL     OW  620   1.151   1.615   2.824  0.0782 -0.2564 -0.0672
  203SOL    HW1  621   1.236   1.659   2.831  0.6682 -1.4725  0.7852
  203SOL    HW2  622   1.105   1.638   2.904 -0.3107  0.1883 -0.4101
  204SOL     OW  623   2.561   1.016   0.505  0.3447  0.2426  0.4794
  204SOL    HW1  624   2.621   1.017   0.430 -0.0606  0.2039  0.1523
  204SOL    HW2  625   2.535   0.924   0.513  1.9652 -0.1486  1.9480
  205SOL     OW  626   0.904   1.975   0.078  0.3433  0.3521 -0.1793
  205SOL    HW1  627   0.956   1.911   0.127 -0.5274  0.5511  1.0681
  205SOL    HW2  628   0.953   1.990  -0.003  1.3695 -0.6825  0.2297
  206SOL     OW  629   1.703   1.643   0.920 -0.4942 -0.1432  0.2193
  206SOL    HW1  630   1.687   1.731   0.955  0.7587 -0.3694  1.4365
  206SOL    HW2  631   1.616   1.602   0.918 -0.7586  0.2045  2.2257
  207SOL     OW  632   2.890   0.707   1.511 -0.1182 -0.1687 -0.3534
  207SOL    HW1  633   2.795   0.712   1.501 -0.1131  0.2328 -0.2191
  207SOL    HW2  634   2.925   0.717   1.423 -0.1966 -0.1776 -0.3848
  208SOL     OW  635   0.767   2.404   2.067 -0.1976 -0.0546 -0.2632
  208SOL    HW1  636   0.843   2.374   2.017  0.0608  0.6782 -0.3238
  208SOL    HW2  637   0.773   2.359   2.151  0.9652  0.8898  0.1825
  209SOL     OW  638   1.180   0.754   0.742  0.2621 -0.8512 -0.3157
  209SOL    HW1  639   1.106   0.701   0.771  0.2186  0.1275  1.5565
  209SOL    HW2  640   1.142   0.818   0.681 -0.7935  0.5703  1.7151
  210SOL     OW  641   2.033   1.361   0.417  0.0328  0.3047 -0.0487
  210SOL    HW1  642   2.049   1.276   0.457  2.2266  0.9401  0.5576
  210SOL    HW2  643   2.038   1.423   0.490 -0.6094  1.0507 -0.6224
  211SOL     OW  644   0.975   1.712   0.428  0.0875  0.0022  0.0572
  211SOL    HW1  645   0.928   1.704   0.511  0.4104 -0.3625  0.2103
  211SOL    HW2  646   0.908   1.700   0.361  0.1786 -2.0794  0.2658
  212SOL     OW  647   2.585   2.241   0.302 -0.0860  0.0142 -0.0983
  212SOL    HW1  648   2.516   2.212   0.242  0.5797 -1.7249 -0.0894
  212SOL    HW2  649   2.593   2.169   0.365  1.6438  0.2244 -0.0353
  213SOL     OW  650   1.238   2.416   2.059 -0.0642  0.3027  0.2385
  213SOL    HW1  651   1.202   2.495   2.099  0.4943  1.7763 -2.0377
  213SOL    HW2  652   1.331   2.436   2.045 -0.1555 -0.3019 -1.4049
  214SOL     OW  653   1.654   2.129   1.714  0.7625  0.2616  0.4342
  214SOL    HW1  654   1.734   2.079   1.732  1.7841  1.3936 -0.7987
  214SOL    HW2  655   1.602   2.072   1.657  0.9456 -0.2341  0.7510
  215SOL     OW  656   1.982   2.249   1.609  0.3699  0.2067 -0.0437
  215SOL    HW1  657   1.948   2.227   1.695 -0.3368  0.0916 -0.3480
  215SOL    HW2  658   2.038   2.325   1.624  1.3329 -0.6240  0.7189
  216SOL     OW  659   2.485   2.076   2.306 -0.1900 -0.0808  0.1365
  216SOL    HW1  660   2.392   2.075   2.330 -0.6896 -1.2505 -1.5724
  216SOL    HW2  661   2.486   2.043   2.216  1.6172  2.7169 -1.0031
  217SOL     OW  662   0.917   0.357   0.963  1.2093  0.2216 -0.1997
  217SOL    HW1  663   0.973   0.319   1.031  2.4461  1.4761 -0.4690
  217SOL    HW2  664   0.949   0.318   0.881 -1.0861 -2.2604 -0.0767
  218SOL     OW  665   0.560   1.391   0.055 -0.1140 -0.2281  0.4976
  218SOL    HW1  666   0.583   1.372  -0.036 -2.1346 -0.0348 -0.1009
  218SOL    HW2  667   0.602   1.322   0.106 -0.6123 -1.5183 -0.8017
  219SOL     OW  668   0.397   2.263   2.193  0.7062 -0.1555 -0.4818
  219SOL    HW1  669   0.330   2.308   2.141  0.1925  0.2349  0.5059
  219SOL    HW2  670   0.383   2.170   2.174  0.0733 -0.0598 -0.5113
  220SOL     OW  671   2.409   1.432   1.215 -0.5186 -0.3292 -0.7590
  220SOL    HW1  672   2.454   1.486   1.149 -0.2583 -0.5700 -0.7823
  220SOL    HW2  673   2.319   1.424   1.183 -1.4801  2.7359  0.8299
  221SOL     OW  674   1.966   0.404   0.461 -0.3886  0.0982 -0.5861
  221SOL    HW1  675   2.025   0.334   0.431 -0.0137  0.1764 -0.0376
  221SOL    HW2  676   1.907   0.361   0.522  0.8390  0.5444  0.9873
  222SOL     OW  677   1.933   0.664   0.560  0.1118 -0.3498 -0.7237
  222SOL    HW1  678   1.915   0.591   0.501 -2.2544  1.3229 -2.2795
  222SOL    HW2  679   1.942   0.740   0.501  0.0776  1.0144  0.9496
  223SOL     OW  680   0.367   2.445   0.080  0.3137 -0.4439  0.1457
  223SOL    HW1  681   0.280   2.407   0.068  0.1261  0.5011 -1.8611
  223SOL    HW2  682   0.382   2.497   0.001  2.9576 -1.0568  0.1435
  224SOL     OW  683   1.004   2.056   1.182  0.3289  0.1524 -0.0151
  224SOL    HW1  684   1.023   1.977   1.132 -1.9554 -0.4154 -0.1161
  224SOL    HW2  685   1.066   2.055   1.254  1.7242 -0.5826 -1.1757
  225SOL     OW  686   2.740   1.601   0.672  0.0733 -0.5533 -0.6827
  225SOL    HW1  687   2.825   1.633   0.641  1.5428 -0.1074  3.2886
  225SOL    HW2  688   2.737   1.510   0.645  1.0082 -0.1514 -2.3003
  226SOL     OW  689   2.228   1.355   2.438  0.5902 -0.0440 -0.4068
  226SOL    HW1  690   2.310   1.397   2.414  1.6214 -0.4720  2.1182
  226SOL    HW2  691   2.254   1.275   2.484 -1.1773  0.3245  1.3757
  227SOL     OW  692   0.121   2.356   0.127  0.4265  0.4145  0.3701
  227SOL    HW1  693   0.052   2.303   0.089  1.5027  0.1277 -1.2676
  227SOL    HW2  694   0.096   2.447   0.108  0.7972  0.2861 -0.7932
  228SOL     OW  695   1.539   2.360   2.303 -0.0011  0.5460  0.8803
  228SOL    HW1  696   1.511   2.364   2.212  1.6703  0.2338  0.3222
  228SOL    HW2  697   1.476   2.302   2.345  0.0693 -0.5176 -0.4294
  229SOL     OW  698   2.747   0.221   1.854 -0.5676 -0.0767  0.3568
  229SOL    HW1  699   2.791   0.171   1.923  0.2631  1.6652  1.1539
  229SOL    HW2  700   2.804   0.211   1.778 -0.6858 -0.7595  0.3530
  230SOL     OW  701   1.944   2.660   1.821  0.9723 -0.0916 -0.2575
  230SOL    HW1  702   1.881   2.630   1.756  0.3974 -0.7420  0.5714
  230SOL    HW2  703   1.934   2.598   1.894  1.7809  0.4609  0.3384
  231SOL     OW  704   1.578   0.867   0.312 -0.0184 -0.4720  0.3052
  231SOL    HW1  705   1.647   0.932   0.322  0.7266 -1.3082  0.8865
  231SOL    HW2  706   1.561   0.863   0.218 -0.4826  0.9553  0.3200
  232SOL     OW  707   0.616   2.810   0.901 -0.4437 -0.0617 -0.3997
  232SOL    HW1  708   0.628   2.808   0.995 -0.9073 -0.6784 -0.3444
  232SOL    HW2  709   0.607   2.718   0.876 -1.3588  0.1537 -0.8983
  233SOL     OW  710   0.228   2.397   1.401  0.0342  0.3674  0.8041
  233SOL    HW1  711   0.166   2.443   1.345 -1.0607 -1.0135  0.8288
  233SOL    HW2  712   0.260   2.464   1.462  0.4440  1.6453 -0.7737
  234SOL     OW  713   0.638   1.802   1.301  0.1199 -0.3570  0.3049
  234SOL    HW1  714   0.707   1.736   1.313  0.5164 -0.0852 -0.4318
  234SOL    HW2  715   0.682   1.875   1.256 -0.6480 -0.1840 -0.1804
  235SOL     OW  716   0.844   0.261   2.371 -0.4443 -0.4221 -0.2482
  235SOL    HW1  717   0.868   0.217   2.290  1.5511  0.2507 -0.0816
  235SOL    HW2  718   0.921   0.315   2.393 -1.6647  0.8798  1.0771
  236SOL     OW  719   1.810   1.416   1.870  0.1313 -0.1432 -0.3624
  236SOL    HW1  720   1.794   1.466   1.951  0.1546  0.4010 -0.6877
  236SOL    HW2  721   1.903   1.394   1.874  0.0589 -0.4067 -0.0820
  237SOL     OW  722   0.510   2.649   0.597  0.5346  0.2812  0.3801
  237SOL    HW1  723   0.553   2.584   0.652 -0.3174 -1.6752 -1.1107
  237SOL    HW2  724   0.433   2.603   0.562 -0.8460  2.5398  0.2578
  238SOL     OW  725   2.345   1.752   1.216 -0.2935  0.0722 -0.6555
  238SOL    HW1  726   2.397   1.691   1.267  2.7965  1.6744 -1.6168
  238SOL    HW2  727   2.340   1.831   1.270  1.4368  1.1491 -1.9839
  239SOL     OW  728   0.004   2.005   0.516  0.1331  0.1344  0.1183
  239SOL    HW1  729   0.019   1.946   0.443  0.5174  0.7657 -0.3268
  239SOL    HW2  730  -0.078   2.051   0.494  1.1367  1.5765 -0.7982
  240SOL     OW  731   0.032   2.878   0.860 -0.1850 -0.3381  0.5787
  240SOL    HW1  732  -0.035   2.913   0.919  0.2237 -0.0218  0.8585
  240SOL    HW2  733   0.092   2.830   0.917 -0.1090 -0.5298  0.3405
  241SOL     OW  734   1.643   2.017   1.396 -0.1196  0.0680 -0.1040
  241SOL    HW1  735   1.567   1.960   1.395  0.2765 -1.0529  4.7684
  241SOL    HW2  736   1.718   1.958   1.388  0.2868  0.6859 -0.9900
  242SOL     OW  737   0.533   1.653   1.845  0.1173 -0.1301 -0.5087
  242SOL    HW1  738   0.478   1.621   1.917  1.8253 -0.3917  0.7401
  242SOL    HW2  739   0.525   1.748   1.849 -1.7404 -0.1898 -1.6114
  243SOL     OW  740   0.438   1.009   1.270 -0.1130 -0.0114  0.3747
  243SOL    HW1  741   0.510   1.064   1.238 -0.2284  0.1544  0.3990
  243SOL    HW2  742   0.436   0.935   1.210 -0.1848  0.1871  0.1299
  244SOL     OW  743   2.602   1.878   2.457 -0.0557 -0.0478  0.3558
  244SOL    HW1  744   2.567   1.815   2.394 -0.9674  1.5867 -0.8512
  244SOL    HW2  745   2.575   1.964   2.423  1.1401  1.0129  1.9243
  245SOL     OW  746   2.172   1.258   2.796 -0.2376 -0.7522  0.2543
  245SOL    HW1  747   2.095   1.254   2.740 -0.2780 -0.1988  0.2581
  245SOL    HW2  748   2.242   1.218   2.745 -0.4383 -0.8915  0.0897
  246SOL     OW  749   2.257   0.081   0.188 -0.0728 -0.5275 -0.3615
  246SOL    HW1  750   2.187   0.072   0.123 -0.0869  1.5252 -0.6985
  246SOL    HW2  751   2.310   0.002   0.178 -1.2743 -1.2358 -1.3970
  247SOL     OW  752   0.024   0.065   2.018 -0.9720 -0.3233  0.7682
  247SOL    HW1  753   0.106   0.054   1.970 -0.7976 -0.9510  1.1942
  247SOL    HW2  754   0.043   0.134   2.082 -1.2002  0.5008 -0.0376
  248SOL     OW  755   2.018   0.667   2.699 -0.1631 -0.3196  0.4843
  248SOL    HW1  756   1.957   0.723   2.748  0.4486  0.5626  0.2605
  248SOL    HW2  757   1.981   0.579   2.708 -1.4805  0.1882  0.3433
  249SOL     OW  758   0.462   1.425   2.314 -0.6402  0.5299 -0.3386
  249SOL    HW1  759   0.499   1.365   2.378 -0.1592 -0.2455 -1.3128
  249SOL    HW2  760   0.392   1.376   2.272 -0.1949  0.5914 -1.1948
  250SOL     OW  761   1.324   1.310   0.591  0.5945 -0.0171 -0.0372
  250SOL    HW1  762   1.409   1.354   0.598 -0.7713  2.6806  0.9984
  250SOL    HW2  763   1.267   1.359   0.651 -1.5528 -2.1339 -0.2202
  251SOL     OW  764   1.719   2.391   0.746  0.5378 -0.4965 -0.0128
  251SOL    HW1  765   1.663   2.433   0.680  0.1507 -0.3240  0.4197
  251SOL    HW2  766   1.658   2.340   0.800  0.8538 -0.6529  0.1978
  252SOL     OW  767   0.976   0.630   0.855 -0.5821 -0.0157  0.1547
  252SOL    HW1  768   0.884   0.627   0.882 -0.4907 -0.3776  0.4335
  252SOL    HW2  769   1.011   0.545   0.879 -0.6935 -0.7043 -1.8852
  253SOL     OW  770   0.819   2.679   2.592 -0.0196  0.5777  0.1627
  253SOL    HW1  771   0.786   2.657   2.680 -1.0120  0.5797 -0.1928
  253SOL    HW2  772   0.911   2.702   2.606  0.3255 -1.1121  0.9589
  254SOL     OW  773   2.448   2.808   0.536 -0.1459 -0.1360 -0.7363
  254SOL    HW1  774   2.542   2.790   0.534  0.0184  0.7549 -2.7157
  254SOL    HW2  775   2.424   2.796   0.628  2.0752  0.5920  0.0063
  255SOL     OW  776   0.371   1.655   2.442  0.6511  0.8136  0.0757
  255SOL    HW1  777   0.398   1.615   2.524  0.8226  1.2639  0.2396
  255SOL    HW2  778   0.402   1.595   2.374 -1.1617 -0.5684  0.3814
  256SOL     OW  779   0.818   0.083   2.612 -0.4654  0.5972  0.0731
  256SOL    HW1  780   0.727   0.053   2.623 -0.8354  0.9180 -1.8529
  256SOL    HW2  781   0.818   0.131   2.529  1.4933  0.5030 -0.0250
  257SOL     OW  782   2.566   0.229   1.526 -0.1437 -0.0602 -0.5974
  257SOL    HW1  783   2.550   0.302   1.467  2.1136 -1.1784 -2.7722
  257SOL    HW2  784   2.649   0.249   1.568 -1.8642  0.8898  2.6908
  258SOL     OW  785   0.111   0.694   1.229  0.1748 -0.1542 -0.1943
  258SOL    HW1  786   0.154   0.780   1.227 -0.0686  0.2699  3.7384
  258SOL    HW2  787   0.029   0.707   1.181 -0.5530  2.3686  1.5144
  259SOL     OW  788   2.874   0.465   0.714 -0.4138 -0.1887 -0.1045
  259SOL    HW1  789   2.969   0.456   0.718 -0.1310  0.4985 -3.1810
  259SOL    HW2  790   2.857   0.555   0.740  0.4297  1.4287 -4.3880
  260SOL     OW  791   1.325   2.268   2.427  0.0426 -0.0410  0.3013
  260SOL    HW1  792   1.330   2.301   2.517 -1.1180  0.5932  0.1540
  260SOL    HW2  793   1.234   2.284   2.401  0.2804 -0.5170 -0.8737
  261SOL     OW  794   2.521   2.153   1.584 -0.6946 -0.2557  0.0610
  261SOL    HW1  795   2.573   2.079   1.553 -1.2116 -1.3732  1.6782
  261SOL    HW2  796   2.583   2.205   1.636 -0.6419 -0.3243  0.0680
  262SOL     OW  797   1.135   1.501   0.768 -1.0515 -0.1790  0.2090
  262SOL    HW1  798   1.066   1.565   0.750 -0.7593  0.9509  2.7344
  262SOL    HW2  799   1.091   1.433   0.819 -0.6402 -0.2543  0.4648
  263SOL     OW  800   2.338   2.696   0.780  0.0287  0.1696  0.1772
  263SOL    HW1  801   2.391   2.723   0.855  1.8960  0.0848 -1.0512
  263SOL    HW2  802   2.384   2.619   0.745 -1.3766 -0.4064 -0.4619
  264SOL     OW  803   0.156   0.975   1.340  0.4186 -0.0083 -0.1512
  264SOL    HW1  804   0.250   0.990   1.330  0.4823  0.1673  0.6244
  264SOL    HW2  805   0.136   1.011   1.426 -0.3998  0.1295 -0.3961
  265SOL     OW  806   0.062   1.894   1.410 -0.1402 -0.1533  0.1240
  265SOL    HW1  807   0.082   1.974   1.362 -1.4380 -0.0052 -0.2143
  265SOL    HW2  808   0.114   1.826   1.367 -0.6620  0.1284 -0.9928
  266SOL     OW  809   0.022   0.805   0.582  0.5324 -0.5446 -0.0831
  266SOL    HW1  810   0.008   0.898   0.601 -1.1213 -0.8018  0.0548
  266SOL    HW2  811  -0.016   0.792   0.495 -1.5210 -1.5948  0.9255
  267SOL     OW  812   2.812   2.559   1.826 -0.0423 -0.0407 -0.0159
  267SOL    HW1  813   2.906   2.566   1.838 -0.2255  0.0292  1.5287
  267SOL    HW2  814   2.799   2.565   1.731  1.5780 -1.1770 -0.3322
  268SOL     OW  815   2.731   1.799   0.295  0.3606  0.0806  0.5308
  268SOL    HW1  816   2.695   1.713   0.278 -1.0865  0.6955  0.3905
  268SOL    HW2  817   2.826   1.787   0.288  0.1519 -1.3460 -0.1089
  269SOL     OW  818   0.341   0.059   1.209  0.3773  0.3628 -0.0509
  269SOL    HW1  819   0.276   0.040   1.276 -1.0539  0.8866 -1.2280
  269SOL    HW2  820   0.339   0.154   1.199  0.1837  0.2568 -1.1716
  270SOL     OW  821   2.444   2.060   1.103 -0.0666 -0.1119 -0.0660
  270SOL    HW1  822   2.482   2.123   1.165 -1.1584  0.0855  0.4187
  270SOL    HW2  823   2.379   2.013   1.154 -1.6279  0.6598 -1.2703
  271SOL     OW  824   1.067   2.719   2.708  0.0980 -0.0584  0.0504
  271SOL    HW1  825   1.135   2.672   2.660  0.4828 -1.0802  1.5257
  271SOL    HW2  826   1.112   2.796   2.743 -0.0603  0.4212 -0.7791
  272SOL     OW  827   0.995   2.752   0.095 -0.4141  0.2468 -0.0061
  272SOL    HW1  828   1.065   2.786   0.039 -0.6866  0.3114 -0.3081
  272SOL    HW2  829   1.024   2.772   0.184  0.0170  0.1485 -0.1221
  273SOL     OW  830   2.631   2.509   0.332 -0.0700  0.4302  0.2261
  273SOL    HW1  831   2.618   2.416   0.313 -0.8270  0.3786  0.9185
  273SOL    HW2  832   2.544   2.542   0.352  0.0945  1.4591 -0.6735
  274SOL     OW  833   0.901   0.751   2.170  0.4184 -0.3814 -0.2168
  274SOL    HW1  834   0.905   0.659   2.144  3.6776 -0.9291  1.7831
  274SOL    HW2  835   0.961   0.796   2.110  0.0359  0.1933 -0.1830
  275SOL     OW  836   1.513   2.647   2.737  0.1262 -0.6270 -0.5812
  275SOL    HW1  837   1.537   2.583   2.670  0.4854 -0.7675 -0.3196
  275SOL    HW2  838   1.592   2.700   2.748 -0.3600  0.2680 -1.2499
  276SOL     OW  839   1.609   0.646   2.036 -0.0202  0.3952  0.1885
  276SOL    HW1  840   1.694   0.604   2.024 -0.7022 -1.8919  2.4550
  276SOL    HW2  841   1.579   0.667   1.947  1.8411 -0.9210 -0.8127
  277SOL     OW  842   1.604   0.468   2.721 -0.5841 -0.5938  0.3169
  277SOL    HW1  843   1.546   0.418   2.779 -1.7414 -0.6803 -0.8507
  277SOL    HW2  844   1.647   0.531   2.778  0.9357 -2.8835  1.8516
  278SOL     OW  845   1.262   0.777   1.279  0.5064  0.0874 -0.6871
  278SOL    HW1  846   1.353   0.761   1.305  0.6358  1.5074 -0.1374
  278SOL    HW2  847   1.264   0.775   1.183  0.8466 -1.1684 -0.6718
  279SOL     OW  848   2.615   0.564   1.447  0.2923 -0.2592 -0.0605
  279SOL    HW1  849   2.522   0.587   1.448  0.5768  0.9444  1.6990
  279SOL    HW2  850   2.650   0.609   1.370 -0.7037 -1.4564 -1.2770
  280SOL     OW  851   1.707   1.976   2.016  0.5515 -0.2053  0.4648
  280SOL    HW1  852   1.726   2.035   2.089 -0.8775  0.5191  0.3026
  280SOL    HW2  853   1.791   1.939   1.991  1.7071  2.6350 -0.1677
  281SOL     OW  854   1.749   1.096   2.602  0.0455 -0.3423  0.2221
  281SOL    HW1  855   1.831   1.143   2.589 -0.0338 -0.6641 -1.8543
  281SOL    HW2  856   1.684   1.165   2.617  0.0695  0.2567 -1.9969
  282SOL     OW  857   2.623   2.326   2.333  0.1474  0.2745  0.1766
  282SOL    HW1  858   2.712   2.296   2.316  0.1521 -0.3806  1.2929
  282SOL    HW2  859   2.571   2.286   2.263  0.4428 -0.8683  0.5907
  283SOL     OW  860   0.129   0.003   1.434  0.4846  0.6279  0.2358
  283SOL    HW1  861   0.070  -0.052   1.383  2.5357 -0.3385 -1.1953
  283SOL    HW2  862   0.123  -0.031   1.523 -1.0656  0.5497  0.1248
  284SOL     OW  863   2.192   1.871   2.895 -0.2591 -0.4415 -0.3580
  284SOL    HW1  864   2.145   1.889   2.977 -0.3317  0.0014 -0.4944
  284SOL    HW2  865   2.174   1.946   2.840  0.7309 -0.1828 -0.3599
  285SOL     OW  866   1.975   2.571   1.135  0.7425 -0.2473  0.4464
  285SOL    HW1  867   1.979   2.599   1.043 -0.5858  1.2618  0.7966
  285SOL    HW2  868   1.966   2.476   1.131 -1.7677 -0.0445 -1.1329
  286SOL     OW  869   0.348   0.341   1.081  0.3287  0.0707 -0.0024
  286SOL    HW1  870   0.287   0.413   1.063 -0.5146 -0.6696 -0.2046
  286SOL    HW2  871   0.397   0.331   0.999 -0.8163 -0.7450 -0.6324
  287SOL     OW  872   1.537   0.236   2.124  0.1110 -0.1523 -0.6497
  287SOL    HW1  873   1.590   0.261   2.048  0.7024  0.7980  0.0482
  287SOL    HW2  874   1.481   0.312   2.141 -0.7940 -0.7725 -0.7757
  288SOL     OW  875   1.519   0.725   1.362  0.0186 -0.2321 -0.0638
  288SOL    HW1  876   1.539   0.633   1.374 -1.7239 -0.9335 -2.0018
  288SOL    HW2  877   1.599   0.762   1.324  1.2135 -0.5721  1.9652
  289SOL     OW  878   1.726   2.589   1.623  0.2268 -0.7829 -0.0078
  289SOL    HW1  879   1.685   2.654   1.566 -0.7237 -1.3262  0.0311
  289SOL    HW2  880   1.734   2.511   1.568 -0.2532 -1.1582  0.4384
  290SOL     OW  881   1.114   0.453   1.829  0.4301 -0.0133  0.3341
  290SOL    HW1  882   1.096   0.467   1.736 -1.0312 -0.1846  0.5550
  290SOL    HW2  883   1.197   0.497   1.845 -0.3359  1.8818 -0.5899
  291SOL     OW  884   0.508   0.842   0.544 -0.5426 -0.2542  0.5179
  291SOL    HW1  885   0.524   0.899   0.469 -0.4808 -1.4987 -0.4400
  291SOL    HW2  886   0.416   0.854   0.565 -0.6318 -0.1183  0.0543
  292SOL     OW  887   0.906   1.531   1.633 -0.8799  0.0099 -0.7131
  292SOL    HW1  888   0.828   1.552   1.685 -1.4505  0.7767 -1.8350
  292SOL    HW2  889   0.968   1.495   1.697 -1.4350  1.2024  0.5640
  293SOL     OW  890   0.768   1.519   2.469 -0.4069  0.2805 -0.4867
  293SOL    HW1  891   0.801   1.440   2.514 -2.8723 -0.2233  0.5860
  293SOL    HW2  892   0.823   1.590   2.502  0.8322 -0.7416 -0.2542
  294SOL     OW  893   0.180   0.705   0.805  0.2289 -0.1570 -0.8621
  294SOL    HW1  894   0.165   0.692   0.711  1.2297 -0.2095 -1.0325
  294SOL    HW2  895   0.165   0.798   0.819 -0.0347 -0.1690 -1.0539
  295SOL     OW  896   2.831   1.154   0.625 -0.0086 -0.5088 -0.4397
  295SOL    HW1  897   2.883   1.202   0.560 -0.2231  0.5366  0.1449
  295SOL    HW2  898   2.750   1.132   0.579  0.2053 -0.5643 -0.7944
  296SOL     OW  899   0.235   1.757   2.857 -0.2076  0.2870  0.5792
  296SOL    HW1  900   0.276   1.843   2.853 -0.3493  0.2961 -1.3364
  296SOL    HW2  901   0.267   1.719   2.939  1.0769  1.5468  0.6904
  297SOL     OW  902   0.247   0.310   2.870  0.7417  0.4159 -0.1002
  297SOL    HW1  903   0.184   0.296   2.940  2.3946  0.5810  1.5079
  297SOL    HW2  904   0.261   0.223   2.832 -1.2228  0.5585 -1.2221
  298SOL     OW  905   1.060   0.234   0.773 -0.1360  0.4331  0.3995
  298SOL    HW1  906   1.144   0.242   0.729 -0.1349 -0.8126  0.1249
  298SOL    HW2  907   1.045   0.139   0.778 -0.9880  0.6081  1.4611
  299SOL     OW  908   1.222   0.351   2.616  0.0789 -0.0383  1.0169
  299SOL    HW1  909   1.277   0.274   2.631 -0.2998 -0.7360 -0.8999
  299SOL    HW2  910   1.146   0.338   2.673 -1.2374 -2.4572 -1.0764
  300SOL     OW  911   1.152   0.986   1.396 -0.0327 -0.1580 -0.2661
  300SOL    HW1  912   1.100   0.944   1.464  0.7609  0.3699  0.6850
  300SOL    HW2  913   1.216   0.920   1.370  1.0500  0.3265  1.0474
  301SOL     OW  914   1.390   1.060   0.685  0.0207  0.3041  0.0110
  301SOL    HW1  915   1.377   1.151   0.658 -0.0393  0.4504  0.5264
  301SOL    HW2  916   1.344   1.009   0.618  0.2668  0.6379 -0.4195
  302SOL     OW  917   0.323   1.937   1.031  0.4972  0.4348 -0.2390
  302SOL    HW1  918   0.366   1.929   1.116  1.3393  1.9195 -0.4789
  302SOL    HW2  919   0.394   1.933   0.967 -0.1796 -1.2173 -0.9425
  303SOL     OW  920   0.404   1.229   1.794 -0.6343  0.4114  0.1441
  303SOL    HW1  921   0.363   1.162   1.849 -1.9896  0.0607 -1.2097
  303SOL    HW2  922   0.492   1.239   1.830 -0.2928 -2.2940  0.2489
  304SOL     OW  923   1.845   1.943   1.745  0.0419 -0.5540  0.4222
  304SOL    HW1  924   1.846   1.848   1.759 -0.1098 -0.6101  0.0645
  304SOL    HW2  925   1.925   1.961   1.697 -0.5235 -0.6744 -0.5883
  305SOL     OW  926   1.422   2.021   2.031  0.0166  0.2347 -0.4486
  305SOL    HW1  927   1.410   2.030   2.125 -0.7145 -0.6641 -0.4377
  305SOL    HW2  928   1.517   2.014   2.019  0.0359 -2.4369  0.5374
  306SOL     OW  929   2.543   2.655   0.999  0.1997 -0.0133  0.0597
  306SOL    HW1  930   2.622   2.697   0.963 -0.1790  1.5462  0.9418
  306SOL    HW2  931   2.575   2.573   1.037  1.3230  0.3812  0.0106
  307SOL     OW  932   2.813   2.203   1.415 -0.5606  0.1161  0.3055
  307SOL    HW1  933   2.903   2.188   1.386 -0.4629  0.4213  0.4461
  307SOL    HW2  934   2.787   2.121   1.457  0.4581  0.7702  2.3343
  308SOL     OW  935   0.609   0.124   0.711  0.3036  0.4190 -0.2047
  308SOL    HW1  936   0.583   0.069   0.637  0.5639  1.1964 -0.8888
  308SOL    HW2  937   0.626   0.063   0.782  1.4197 -0.4474 -1.1944
  309SOL     OW  938   2.333   0.798   2.100 -0.0909  0.5024  0.1399
  309SOL    HW1  939   2.365   0.792   2.010  0.5347 -1.8859  0.4471
  309SOL    HW2  940   2.257   0.739   2.103  0.1280  0.2488  1.2487
  310SOL     OW  941   2.382   2.393   2.433  0.0003 -0.0781 -0.3671
  310SOL    HW1  942   2.344   2.422   2.350  1.1928  1.3373 -0.4588
  310SOL    HW2  943   2.473   2.376   2.412 -0.0423 -1.2290  0.3373
  311SOL     OW  944   0.140   1.004   0.787  0.0429 -0.0795 -0.1335
  311SOL    HW1  945   0.060   1.004   0.735  0.5631 -1.3792 -0.9863
  311SOL    HW2  946   0.112   1.029   0.875 -1.2996 -0.4820 -0.4287
  312SOL     OW  947   0.669   1.606   2.239  0.3042 -0.1470  0.6766
  312SOL    HW1  948   0.587   1.559   2.227  1.0007 -1.2852  0.2237
  312SOL    HW2  949   0.709   1.567   2.316  0.7491 -0.1041  0.4746
  313SOL     OW  950   1.570   2.515   0.553  0.3237  0.9449  0.3321
  313SOL    HW1  951   1.478   2.509   0.529 -0.0553  3.0376  1.0687
  313SOL    HW2  952   1.618   2.492   0.473 -0.7714 -1.2529  0.2394
  314SOL     OW  953   2.348   1.298   2.169 -0.3230  0.2224  0.0251
  314SOL    HW1  954   2.270   1.349   2.190 -0.0924  0.1509  1.1109
  314SOL    HW2  955   2.323   1.207   2.185 -0.5252  0.0346 -1.2582
  315SOL     OW  956   2.228   2.214   2.581 -0.0911 -0.4100 -0.4923
  315SOL    HW1  957   2.212   2.142   2.521 -0.1031  0.3774 -1.4707
  315SOL    HW2  958   2.278   2.278   2.529 -0.4710  0.4749  0.1944
  316SOL     OW  959   2.276   0.367   0.565  0.0762 -0.1986  0.2330
  316SOL    HW1  960   2.286   0.347   0.472 -0.6286 -1.3882  0.3894
  316SOL    HW2  961   2.218   0.298   0.598  0.9253 -0.2466  1.7151
  317SOL     OW  962   2.613   2.633   1.992  0.1340  0.5505  0.2979
  317SOL    HW1  963   2.666   2.683   2.053  1.5824 -1.3829  0.7451
  317SOL    HW2  964   2.673   2.609   1.921  0.4490 -2.9345  1.5213
  318SOL     OW  965   1.435   1.841   2.508  0.0787  0.0310 -0.9433
  318SOL    HW1  966   1.469   1.753   2.496 -0.6803 -0.2669 -0.9730
  318SOL    HW2  967   1.340   1.832   2.497 -0.1516  0.6187  0.3073
  319SOL     OW  968   1.730   0.848   0.674 -0.9694  0.4288 -0.2543
  319SOL    HW1  969   1.657   0.788   0.659 -0.4941  0.2716 -2.2907
  319SOL    HW2  970   1.808   0.794   0.667 -0.6194  0.8376  0.4832
  320SOL     OW  971   0.389   0.804   1.089 -0.0860  0.5927  0.0885
  320SOL    HW1  972   0.334   0.726   1.079  0.9844 -0.3174  1.0105
  320SOL    HW2  973   0.432   0.815   1.004  0.9929 -0.8140  0.4260
  321SOL     OW  974   1.717   0.788   1.686 -0.0373 -0.3368  0.6312
  321SOL    HW1  975   1.678   0.874   1.668  1.0068 -0.0954 -0.6031
  321SOL    HW2  976   1.775   0.772   1.612  0.2711 -1.8342  1.1641
  322SOL     OW  977   1.879   2.641   0.522 -0.2540  0.0322 -0.2330
  322SOL    HW1  978   1.933   2.680   0.454  0.5770  0.2223  0.5190
  322SOL    HW2  979   1.939   2.582   0.569 -0.6457  0.3919  0.7343
  323SOL     OW  980   0.195   0.778   1.952 -0.0380  0.5212 -0.1086
  323SOL    HW1  981   0.176   0.783   1.859  1.2753 -0.4639 -0.4439
  323SOL    HW2  982   0.283   0.815   1.961 -0.1697  0.6567  0.7506
  324SOL     OW  983   1.087   0.276   1.183 -0.3473  0.0485  0.3105
  324SOL    HW1  984   1.097   0.181   1.175 -0.7302  0.1091 -0.9748
  324SOL    HW2  985   1.164   0.304   1.234 -0.7150 -1.0487  1.5262
  325SOL     OW  986   1.435   1.276   1.339 -0.5681  0.4238 -0.7875
  325SOL    HW1  987   1.453   1.182   1.346 -2.0476  0.2434  1.9902
  325SOL    HW2  988   1.521   1.317   1.350 -0.1535 -0.5965  0.0668
  326SOL     OW  989   0.854   2.634   2.134 -0.0744 -0.2942 -0.9776
  326SOL    HW1  990   0.787   2.672   2.191  1.4809 -0.3526  1.0015
  326SOL    HW2  991   0.817   2.551   2.105 -1.1270 -0.0063 -0.5161
  327SOL     OW  992   2.782   2.499   2.770  0.0632  0.1234  0.9408
  327SOL    HW1  993   2.782   2.537   2.858 -1.5459 -0.9428  1.4350
  327SOL    HW2  994   2.689   2.485   2.750  0.5094 -2.1364  0.1843
  328SOL     OW  995   1.698   1.342   1.410 -0.2329  0.4692 -0.5772
  328SOL    HW1  996   1.738   1.425   1.382  0.7155  0.8340  1.6627
  328SOL    HW2  997   1.738   1.277   1.353  0.9998  1.2601 -0.6657
  329SOL     OW  998   1.706   2.874   2.804 -0.0258 -0.0650  0.1701
  329SOL    HW1  999   1.741   2.960   2.830  0.8678 -0.9497  2.1174
  329SOL    HW2 1000   1.668   2.889   2.718 -1.2622  2.6504  1.0753
  330SOL     OW 1001   1.731   2.110   0.051  0.5314 -0.3479 -0.3641
  330SOL    HW1 1002   1.693   2.192   0.020 -1.2150 -1.0146 -0.0825
  330SOL    HW2 1003   1.697   2.043  -0.009  0.5271 -1.0873  0.4368
  331SOL     OW 1004   2.743   1.500   2.275 -0.0901  0.2469  0.2259
  331SOL    HW1 1005   2.806   1.527   2.343  0.5458  0.8554 -0.5827
  331SOL    HW2 1006   2.743   1.572   2.213 -0.1763 -0.5768 -0.7583
  332SOL     OW 1007   2.205   0.650   0.415 -0.5421  0.1215 -0.3893
  332SOL    HW1 1008   2.127   0.687   0.373  0.4170  1.3510 -1.1255
  332SOL    HW2 1009   2.170   0.580   0.470 -1.9084 -1.2900 -2.8690
  333SOL     OW 1010   2.093   1.743   2.683  0.2633  0.3078  0.3259
  333SOL    HW1 1011   2.144   1.759   2.762 -0.0182 -1.0476  0.7962
  333SOL    HW2 1012   2.154   1.701   2.623 -0.2312 -1.2675  0.8707
  334SOL     OW 1013   2.235   2.559   1.909  0.1081 -0.3290 -0.2590
  334SOL    HW1 1014   2.291   2.628   1.874  0.8878  0.3915  2.1793
  334SOL    HW2 1015   2.157   2.560   1.855  1.1108  0.8381 -1.7439
  335SOL     OW 1016   0.678   1.253   1.418  0.1735  0.3177  0.6270
  335SOL    HW1 1017   0.599   1.307   1.422 -0.4366 -0.5644  0.9249
  335SOL    HW2 1018   0.667   1.201   1.338  1.7809  2.1189 -0.8736
  336SOL     OW 1019   1.424   2.185   2.696  0.0345  0.3392  0.3484
  336SOL    HW1 1020   1.504   2.153   2.656  0.5187 -1.2736  2.4553
  336SOL    HW2 1021   1.374   2.106   2.718 -0.5366  1.1366  2.1458
  337SOL     OW 1022   0.504   1.064   2.385  0.4369 -0.4145 -0.4198
  337SOL    HW1 1023   0.497   0.997   2.454  0.0414 -0.7489 -0.7763
  337SOL    HW2 1024   0.549   1.020   2.313 -2.2434 -1.2345 -1.7474
  338SOL     OW 1025   2.256   0.373   1.076 -0.5367  0.7346  0.0426
  338SOL    HW1 1026   2.176   0.418   1.103 -0.1144  1.2534  0.4551
  338SOL    HW2 1027   2.226   0.288   1.045 -1.2106  0.7844  0.5304
  339SOL     OW 1028   2.341   2.163   0.194  0.0190 -0.0270 -0.1887
  339SOL    HW1 1029   2.343   2.203   0.107 -0.9861  1.7023  0.5427
  339SOL    HW2 1030   2.257   2.189   0.230 -0.3191 -2.1339  0.6908
  340SOL     OW 1031   1.958   2.163   1.899  0.0278  0.3936  0.3724
  340SOL    HW1 1032   1.914   2.080   1.882 -1.8050  1.5992 -1.1409
  340SOL    HW2 1033   2.051   2.141   1.901 -0.3399 -1.5253 -1.0414
  341SOL     OW 1034   0.356   2.002   2.153  0.6450  0.4018 -0.7201
  341SOL    HW1 1035   0.345   1.969   2.242  2.3468  1.0892 -0.2207
  341SOL    HW2 1036   0.387   1.926   2.103  1.5736  0.4638 -0.2652
  342SOL     OW 1037   2.602   2.010   0.443 -0.2755 -0.1436  0.4369
  342SOL    HW1 1038   2.646   1.945   0.389  1.4273 -0.7358  2.3970
  342SOL    HW2 1039   2.567   1.961   0.517 -1.0410  0.8516  0.7520
  343SOL     OW 1040   0.565   1.683   0.844  0.5825  0.3273 -0.3462
  343SOL    HW1 1041   0.550   1.612   0.907 -0.0604 -0.5725 -1.4562
  343SOL    HW2 1042   0.590   1.638   0.763 -2.3634  1.1093 -1.8649
  344SOL     OW 1043   0.486   0.687   1.327 -0.3504 -0.2395  0.3884
  344SOL    HW1 1044   0.426   0.696   1.253 -0.3714  0.1808  0.4509
  344SOL    HW2 1045   0.573   0.697   1.289 -0.2372 -2.0579  0.1071
  345SOL     OW 1046   1.343   0.085   2.575  0.1536  0.4174 -0.1955
  345SOL    HW1 1047   1.375   0.112   2.661 -1.4206 -0.3910  0.6984
  345SOL    HW2 1048   1.413   0.032   2.538  0.3994 -0.2036  1.1087
  346SOL     OW 1049   0.484   2.363   0.837 -0.4190 -0.5960 -0.2968
  346SOL    HW1 1050   0.409   2.420   0.819 -0.6855 -0.8941 -0.1455
  346SOL    HW2 1051   0.493   2.309   0.759  1.5895  1.5256 -1.6536
  347SOL     OW 1052   1.095   0.276   0.471 -0.0874  0.1760 -0.8901
  347SOL    HW1 1053   1.014   0.245   0.512  1.0807 -0.7431  0.8626
  347SOL    HW2 1054   1.106   0.365   0.506  0.0597  0.0062 -0.4978
  348SOL     OW 1055   1.040   1.294   0.941  0.0226 -0.1219 -0.3134
  348SOL    HW1 1056   0.970   1.333   0.993  2.2147  2.2843  1.0651
  348SOL    HW2 1057   1.076   1.224   0.996 -1.2148 -1.4240 -1.0602
  349SOL     OW 1058   1.435   0.329   1.590 -0.6400  0.2216 -0.0237
  349SOL    HW1 1059   1.458   0.239   1.565 -0.6877  0.0183  0.6539
  349SOL    HW2 1060   1.414   0.324   1.683 -1.3921  0.7938 -0.1450
  350SOL     OW 1061   0.690   2.561   0.850  0.3647 -0.1541 -0.3940
  350SOL    HW1 1062   0.639   2.484   0.876  1.4871 -1.0083 -0.6489
  350SOL    HW2 1063   0.779   2.528   0.837  1.7606  1.7396  2.8901
  351SOL     OW 1064   2.548   0.019   0.228 -0.3887 -0.3923  0.2444
  351SOL    HW1 1065   2.543   0.110   0.259 -2.0635 -0.6149  0.7543
  351SOL    HW2 1066   2.619  -0.020   0.279  1.0209  0.8484 -0.6632
  352SOL     OW 1067   2.559   0.723   0.868 -0.1867 -0.1601 -0.1318
  352SOL    HW1 1068   2.509   0.670   0.806  0.6259 -0.9729 -0.1056
  352SOL    HW2 1069   2.517   0.707   0.953 -0.0995 -0.5703 -0.1647
  353SOL     OW 1070   0.065   1.012   2.054  0.7727  0.0637  0.2352
  353SOL    HW1 1071   0.102   0.925   2.045 -0.5170 -0.4560 -0.3733
  353SOL    HW2 1072   0.035   1.016   2.145  0.3107 -0.3703  0.1108
  354SOL     OW 1073   2.286   1.825   0.627 -0.6188  0.4165 -0.5091
  354SOL    HW1 1074   2.249   1.901   0.581 -4.1204  1.2934  3.2134
  354SOL    HW2 1075   2.318   1.861   0.710  0.9674 -1.7333 -0.1127
  355SOL     OW 1076   1.687   1.288   1.000 -0.2314 -0.4022  0.6700
  355SOL    HW1 1077   1.669   1.206   0.954  2.3424  0.4897 -2.2154
  355SOL    HW2 1078   1.621   1.349   0.967  0.2480 -0.3477 -0.2279
  356SOL     OW 1079   0.334   0.553   2.810 -0.0816 -0.1254  0.5283
  356SOL    HW1 1080   0.347   0.596   2.895 -0.3686  0.9646  0.0340
  356SOL    HW2 1081   0.289   0.471   2.832 -2.9266  1.4841  1.2151
  357SOL     OW 1082   0.568   1.631   0.379  0.5005  0.5307  0.1058
  357SOL    HW1 1083   0.499   1.677   0.428  0.2026  0.2476 -0.0448
  357SOL    HW2 1084   0.628   1.700   0.353 -0.9717  1.1695 -1.8440
  358SOL     OW 1085   2.435   0.767   1.488  0.3201 -0.0716  0.0370
  358SOL    HW1 1086   2.420   0.855   1.455 -1.4830  0.4006  1.9083
  358SOL    HW2 1087   2.529   0.764   1.507  0.7364  0.8016 -1.6957
  359SOL     OW 1088   0.711   2.478   1.183 -0.3330  0.2711  0.2202
  359SOL    HW1 1089   0.669   2.544   1.129 -0.6944  0.6321  0.9343
  359SOL    HW2 1090   0.797   2.465   1.143 -0.9796 -0.2457 -1.0734
  360SOL     OW 1091   1.693   1.840   2.838  0.3576  0.3686  0.2212
  360SOL    HW1 1092   1.619   1.795   2.799  0.6741 -0.7028  0.8242
  360SOL    HW2 1093   1.754   1.854   2.766 -1.5115  3.7650 -0.9249
  361SOL     OW 1094   2.693   2.741   0.714 -0.4780  0.0961 -0.5097
  361SOL    HW1 1095   2.767   2.802   0.715 -0.0886 -0.3626  0.5906
  361SOL    HW2 1096   2.733   2.655   0.699 -0.5050 -0.4433  2.0657
  362SOL     OW 1097   2.718   1.756   2.157 -0.2704  0.1797  0.1842
  362SOL    HW1 1098   2.731   1.768   2.063  1.8159  0.8935  0.5220
  362SOL    HW2 1099   2.699   1.843   2.190  2.5066  0.6122  0.8655
  363SOL     OW 1100   2.337   2.770   2.257 -0.0700 -0.0639 -0.5687
  363SOL    HW1 1101   2.329   2.697   2.196 -0.5916  1.4956 -2.4670
  363SOL    HW2 1102   2.248   2.801   2.270  0.1442  0.2744  0.2068
  364SOL     OW 1103   2.793   0.098   2.367  0.4556 -0.0854 -0.0498
  364SOL    HW1 1104   2.796   0.144   2.283  1.4800 -0.7190 -0.3756
  364SOL    HW2 1105   2.737   0.022   2.351 -0.8473  0.7513  0.3597
  365SOL     OW 1106   2.400   1.990   0.835  0.3113 -0.4922 -0.2458
  365SOL    HW1 1107   2.437   2.026   0.915 -0.7219 -1.6316  0.8037
  365SOL    HW2 1108   2.472   1.944   0.794  1.0715  0.8302 -0.4434
  366SOL     OW 1109   1.851   0.686   1.892  0.4941 -0.4495  0.4552
  366SOL    HW1 1110   1.801   0.731   1.823 -0.0834 -1.0708  0.4507
  366SOL    HW2 1111   1.864   0.597   1.857 -0.6183 -1.0618  1.5192
  367SOL     OW 1112   2.066   0.695   0.814 -0.5850 -0.3438 -0.2284
  367SOL    HW1 1113   2.008   0.677   0.740 -2.6515 -0.4444  1.3488
  367SOL    HW2 1114   2.108   0.611   0.832  0.4266 -0.1807 -1.6197
  368SOL     OW 1115   0.838   1.700   2.057  0.1347  0.1857  0.2577
  368SOL    HW1 1116   0.847   1.643   1.981  1.4791  0.0878  0.4622
  368SOL    HW2 1117   0.765   1.663   2.106 -0.3766 -0.0862 -0.6903
  369SOL     OW 1118   1.202   1.713   1.803  0.0294 -0.0176 -0.4544
  369SOL    HW1 1119   1.127   1.666   1.838  0.1306 -0.5830 -0.9779
  369SOL    HW2 1120   1.271   1.646   1.795  1.3342  0.8799  2.0460
  370SOL     OW 1121   0.660   2.661   2.363  0.1240 -0.0322  0.0864
  370SOL    HW1 1122   0.715   2.648   2.440  0.5544 -0.5285 -0.3018
  370SOL    HW2 1123   0.583   2.707   2.397  1.2292  1.6035  0.4528
  371SOL     OW 1124   2.362   2.829   1.096  0.2320 -0.0418 -0.0584
  371SOL    HW1 1125   2.420   2.754   1.081 -0.8025 -0.7097 -0.8546
  371SOL    HW2 1126   2.304   2.802   1.167  0.6836  0.5110  0.5343
  372SOL     OW 1127   1.058   2.290   2.434  0.5863 -0.3476  0.6438
  372SOL    HW1 1128   1.004   2.317   2.359  1.4705 -1.5204 -0.4501
  372SOL    HW2 1129   1.011   2.324   2.510 -2.0404 -1.8024 -0.1899
  373SOL     OW 1130   0.267   2.528   0.806 -0.3801  0.1262 -0.7411
  373SOL    HW1 1131   0.307   2.598   0.858 -1.7235 -0.0050  0.5478
  373SOL    HW2 1132   0.199   2.571   0.755 -0.6466 -0.1107 -0.5885
  374SOL     OW 1133   0.658   0.449   2.014  0.8206  0.1279 -0.0403
  374SOL    HW1 1134   0.747   0.424   1.987 -0.1585 -1.0719 -2.4289
  374SOL    HW2 1135   0.657   0.544   2.007  1.7362  0.1126 -0.6740
  375SOL     OW 1136   0.868   2.739   0.474 -0.1567  0.6924  0.2697
  375SOL    HW1 1137   0.916   2.671   0.522 -0.1950  1.3713  1.3050
  375SOL    HW2 1138   0.936   2.790   0.431 -0.1968 -1.0926 -2.1158
  376SOL     OW 1139   2.689   0.941   2.787  0.5457  0.4483 -0.1430
  376SOL    HW1 1140   2.606   0.920   2.744 -0.4028  0.6939  1.4969
  376SOL    HW2 1141   2.670   1.016   2.843  1.6108 -0.1063  1.0246
  377SOL     OW 1142   1.608   0.499   1.433 -0.1496  0.1396 -0.1046
  377SOL    HW1 1143   1.535   0.466   1.487 -0.6716  1.9076  0.3411
  377SOL    HW2 1144   1.645   0.420   1.392 -2.1652 -0.8398 -0.1641
  378SOL     OW 1145   1.176   0.727   0.120  0.3593  0.3677 -0.0561
  378SOL    HW1 1146   1.112   0.737   0.050 -1.1202  0.8606  1.3055
  378SOL    HW2 1147   1.163   0.804   0.175  0.1808 -0.8938  1.7492
  379SOL     OW 1148   0.319   0.163   1.603  0.0234  0.3534 -0.2262
  379SOL    HW1 1149   0.333   0.251   1.566  0.6242 -0.1679 -1.2709
  379SOL    HW2 1150   0.287   0.111   1.529  0.0868 -0.4145  0.2782
  380SOL     OW 1151   1.413   0.913   1.893  0.2634 -0.4842  0.1672
  380SOL    HW1 1152   1.453   1.000   1.892  3.0251 -1.6032 -2.1854
  380SOL    HW2 1153   1.433   0.879   1.981  1.5276  0.2992  0.2068
  381SOL     OW 1154   2.457   2.130   2.702  0.1345 -0.3089  0.2832
  381SOL    HW1 1155   2.446   2.159   2.793  0.2676  0.6676  0.0009
  381SOL    HW2 1156   2.396   2.185   2.652  0.4422 -0.4699 -0.2829
  382SOL     OW 1157   2.087   1.580   0.593 -0.0092  0.0331  0.0617
  382SOL    HW1 1158   2.117   1.668   0.615 -0.4887 -0.1543  1.5955
  382SOL    HW2 1159   2.131   1.523   0.657 -1.0613 -0.6158  0.2312
  383SOL     OW 1160   0.958   0.482   2.105  0.3731 -0.4435 -0.1221
  383SOL    HW1 1161   0.963   0.386   2.103  1.5176 -0.3987 -0.0313
  383SOL    HW2 1162   1.026   0.511   2.045 -1.5137  0.3296 -2.0320
  384SOL     OW 1163   1.592   1.131   1.903  0.4254  0.2551  0.3659
  384SOL    HW1 1164   1.583   1.208   1.847 -0.8174 -0.2612 -0.1807
  384SOL    HW2 1165   1.683   1.103   1.891 -0.0088 -0.3372 -2.1008
  385SOL     OW 1166   2.373   0.962   0.232  0.0689  0.1606  0.1872
  385SOL    HW1 1167   2.441   0.997   0.173 -0.1603 -0.0703 -0.2196
  385SOL    HW2 1168   2.421   0.907   0.293  0.2098 -0.3154 -0.3425
  386SOL     OW 1169   2.114   0.965   0.173 -0.2098 -0.3224  0.5134
  386SOL    HW1 1170   2.099   1.005   0.087 -0.2655 -1.7308 -0.1611
  386SOL    HW2 1171   2.209   0.968   0.183 -0.2238  0.1286  0.5574
  387SOL     OW 1172   2.726   0.560   2.602  0.0072  0.2342 -0.1893
  387SOL    HW1 1173   2.688   0.579   2.516 -1.3866  2.7651  0.9003
  387SOL    HW2 1174   2.811   0.604   2.600  0.1642 -0.0677 -0.3844
  388SOL     OW 1175   2.762   0.556   2.099  0.1377  0.0456 -0.0715
  388SOL    HW1 1176   2.734   0.473   2.061 -2.0819 -0.2463  2.0005
  388SOL    HW2 1177   2.858   0.555   2.091  0.3472 -3.4614  1.2316
  389SOL     OW 1178   0.295   2.026   2.794 -0.7179  0.2974 -0.1855
  389SOL    HW1 1179   0.350   2.036   2.717 -1.4437  2.3288 -0.4930
  389SOL    HW2 1180   0.243   2.106   2.798 -1.6536 -0.3256  1.6731
  390SOL     OW 1181   1.370   1.635   0.675  0.2715  0.4409  0.0728
  390SOL    HW1 1182   1.287   1.601   0.710  1.0173  0.2881  1.7950
  390SOL    HW2 1183   1.356   1.640   0.581 -0.6197 -2.6565 -0.0657
  391SOL     OW 1184   0.084   1.628   1.538  0.1599  0.3689  0.7812
  391SOL    HW1 1185   0.113   1.650   1.450  1.1916  1.2624  1.3302
  391SOL    HW2 1186   0.163   1.632   1.592 -0.6444  0.9820  1.9651
  392SOL     OW 1187   1.667   1.283   1.660 -0.2356  0.3246  0.0752
  392SOL    HW1 1188   1.733   1.337   1.705 -2.0211  1.8681  0.9709
  392SOL    HW2 1189   1.687   1.293   1.567  0.9362  0.5499  0.3335
  393SOL     OW 1190   2.145   1.566   2.254  0.6427 -0.7863 -0.3832
  393SOL    HW1 1191   2.146   1.653   2.215  1.7889 -0.4928  0.2718
  393SOL    HW2 1192   2.107   1.510   2.187  0.7842  0.0480 -1.1730
  394SOL     OW 1193   1.581   2.332   2.849 -0.6216 -0.1804  0.3341
  394SOL    HW1 1194   1.494   2.315   2.814 -0.1487  1.0062 -1.5780
  394SOL    HW2 1195   1.630   2.368   2.775  1.3752 -0.4169  1.4691
  395SOL     OW 1196   1.268   0.917   2.693 -0.0593 -0.0622 -0.0970
  395SOL    HW1 1197   1.350   0.940   2.649 -0.2977  2.0027  0.4604
  395SOL    HW2 1198   1.266   0.972   2.771 -1.0168 -1.5805  1.0020
  396SOL     OW 1199   2.894   2.167   1.879  0.4312 -0.1436 -0.0124
  396SOL    HW1 1200   2.814   2.212   1.853  1.6421  2.2114  0.0886
  396SOL    HW2 1201   2.937   2.145   1.797 -0.0739 -0.9817 -0.0601
  397SOL     OW 1202   2.253   2.275   2.853  0.3949 -0.0706 -0.6391
  397SOL    HW1 1203   2.228   2.265   2.761 -0.9391 -1.5163 -0.1564
  397SOL    HW2 1204   2.259   2.369   2.867  1.1987  0.1608 -2.3464
  398SOL     OW 1205   1.867   2.426   1.978 -0.6758  0.1370  0.2342
  398SOL    HW1 1206   1.915   2.345   1.960  0.0299  0.1912  1.7612
  398SOL    HW2 1207   1.781   2.412   1.939 -0.6052 -1.4104  0.5911
  399SOL     OW 1208   2.192   1.959   2.445  0.2809 -0.1398  0.1070
  399SOL    HW1 1209   2.194   1.875   2.492  0.4130  0.6588  1.5996
  399SOL    HW2 1210   2.126   1.947   2.377 -1.8369 -0.5555  2.1052
  400SOL     OW 1211   0.069   0.239   1.175 -0.6977 -0.1140  0.5438
  400SOL    HW1 1212   0.118   0.301   1.121  0.4137 -0.3019  1.3155
  400SOL    HW2 1213   0.097   0.258   1.264 -0.4486 -1.6403  0.8056
  401SOL     OW 1214   0.450   1.049   0.318  0.3676 -0.0989  0.3060
  401SOL    HW1 1215   0.436   1.121   0.380  2.8892  0.3891  0.4135
  401SOL    HW2 1216   0.539   1.063   0.285  0.4858 -2.5113 -0.5666
  402SOL     OW 1217   2.093   2.336   0.242 -0.3181 -0.4166 -0.0848
  402SOL    HW1 1218   2.011   2.328   0.290 -0.0562 -2.7945  0.1055
  402SOL    HW2 1219   2.160   2.347   0.310 -0.3627  0.5467 -0.1854
  403SOL     OW 1220   0.202   2.867   2.440  0.3283  0.0620 -0.0557
  403SOL    HW1 1221   0.136   2.936   2.438  1.5700  1.3413  0.9994
  403SOL    HW2 1222   0.155   2.791   2.475 -0.1918  1.4794  2.5996
  404SOL     OW 1223   2.612   2.815   2.310 -0.3543 -0.1394 -0.5860
  404SOL    HW1 1224   2.654   2.740   2.268 -0.1111 -0.1547 -0.3222
  404SOL    HW2 1225   2.519   2.794   2.311 -0.1815 -0.9693  0.5345
  405SOL     OW 1226   0.160   0.491   0.975  0.1818  0.4795 -0.0529
  405SOL    HW1 1227   0.179   0.558   0.909 -1.0556 -0.9233 -1.9391
  405SOL    HW2 1228   0.068   0.507   0.999 -0.4209 -1.0023 -1.1911
  406SOL     OW 1229   0.495   0.074   1.786  0.2279  0.0604  0.2153
  406SOL    HW1 1230   0.544  -0.001   1.751 -0.4325  0.3052 -1.3229
  406SOL    HW2 1231   0.429   0.092   1.719 -2.7616 -0.9755  2.6411
  407SOL     OW 1232   2.427   1.610   0.518  0.7553  0.5249  0.2155
  407SOL    HW1 1233   2.395   1.685   0.568 -2.1854 -0.2555 -0.2829
  407SOL    HW2 1234   2.439   1.541   0.584 -2.0269 -0.1634  0.1286
  408SOL     OW 1235   2.336   2.332   0.892  0.5066 -0.4062  0.1085
  408SOL    HW1 1236   2.278   2.301   0.962 -0.6246  3.8769  1.3664
  408SOL    HW2 1237   2.422   2.338   0.933  0.0674  1.0264  0.9032
  409SOL     OW 1238   0.501   0.708   2.654  0.2578  0.2380 -0.2600
  409SOL    HW1 1239   0.440   0.658   2.708 -2.0216 -0.9852 -3.6761
  409SOL    HW2 1240   0.587   0.676   2.680 -0.3937  1.1755  3.8949
  410SOL     OW 1241   1.135   0.344   1.553 -0.5739  0.1569  0.3470
  410SOL    HW1 1242   1.228   0.360   1.535 -0.5749  0.8575  0.9034
  410SOL    HW2 1243   1.132   0.257   1.593  0.1315  0.9839  2.3432
  411SOL     OW 1244   0.759   2.238   0.452  0.5723 -0.0942 -0.2434
  411SOL    HW1 1245   0.748   2.245   0.357  2.0549 -0.0702 -0.4375
  411SOL    HW2 1246   0.789   2.148   0.466  2.3174  0.4757 -0.0453
  412SOL     OW 1247   2.549   2.374   2.018  0.4731 -0.1977  0.2770
  412SOL    HW1 1248   2.474   2.383   2.078  0.8105 -0.3378  0.7245
  412SOL    HW2 1249   2.578   2.464   2.003  0.3049 -0.1526  0.2126
  413SOL     OW 1250   2.498   1.601   2.344 -0.4208 -0.3456 -0.0017
  413SOL    HW1 1251   2.508   1.595   2.439 -0.4047  3.5811  0.3755
  413SOL    HW2 1252   2.582   1.570   2.309  0.3209  0.0349  1.3573
  414SOL     OW 1253   1.103   0.065   2.444  0.6436 -0.2331 -0.0255
  414SOL    HW1 1254   1.180   0.085   2.497 -0.0813 -0.4353  1.1175
  414SOL    HW2 1255   1.047   0.013   2.501 -0.8343  0.8153 -0.4706
  415SOL     OW 1256   0.655   0.025   1.380  0.3400  0.2125  0.1097
  415SOL    HW1 1257   0.640   0.118   1.365 -0.1945 -0.0462 -1.0805
  415SOL    HW2 1258   0.751   0.016   1.384  0.3793  0.8915  0.8571
  416SOL     OW 1259   2.405   1.249   0.578  0.1823 -0.5833 -0.8277
  416SOL    HW1 1260   2.458   1.170   0.563 -0.0579 -1.0957  0.7903
  416SOL    HW2 1261   2.337   1.246   0.511  0.8887 -1.0999 -1.5409
  417SOL     OW 1262   1.996   0.356   2.644  0.2304 -0.9460  0.3464
  417SOL    HW1 1263   2.048   0.278   2.623  3.1859  0.9935 -0.1941
  417SOL    HW2 1264   1.928   0.359   2.576  0.8068 -2.4090 -0.3322
  418SOL     OW 1265   2.207   2.057   0.428 -0.1225  0.3768 -0.2686
  418SOL    HW1 1266   2.191   2.087   0.518  1.1315 -2.1025  0.8963
  418SOL    HW2 1267   2.293   2.093   0.406  0.2999 -0.3103  0.1961
  419SOL     OW 1268   1.284   0.403   2.193  0.4967  0.1057  0.4031
  419SOL    HW1 1269   1.315   0.426   2.105  2.2502  0.5282  1.0899
  419SOL    HW2 1270   1.342   0.452   2.252 -1.8974  1.4027  1.8108
  420SOL     OW 1271   1.492   2.216   1.262 -0.3477 -0.6573  0.6920
  420SOL    HW1 1272   1.527   2.165   1.335 -0.2500 -0.0632  1.0665
  420SOL    HW2 1273   1.567   2.227   1.202 -0.2643 -0.6142  0.8039
  421SOL     OW 1274   0.751   1.839   1.676 -0.0025 -0.0923  0.3793
  421SOL    HW1 1275   0.767   1.898   1.602  0.5522 -2.0818 -1.1922
  421SOL    HW2 1276   0.834   1.839   1.724 -0.0642  0.5344  0.4948
  422SOL     OW 1277   0.560   0.098   0.139 -0.6467 -0.7488  0.2152
  422SOL    HW1 1278   0.495   0.028   0.141 -0.7550 -0.6442  1.2591
  422SOL    HW2 1279   0.638   0.058   0.101 -1.1368 -1.0424 -0.4960
  423SOL     OW 1280   2.475   1.116   1.099  0.2975 -0.3013 -0.1494
  423SOL    HW1 1281   2.442   1.040   1.146 -2.5517  2.0182  1.9911
  423SOL    HW2 1282   2.407   1.136   1.035 -0.2938  1.7724  1.0213
  424SOL     OW 1283   1.650   0.557   0.761 -0.3589 -0.5446  0.3319
  424SOL    HW1 1284   1.631   0.503   0.837 -1.4459 -0.8874 -0.1635
  424SOL    HW2 1285   1.678   0.495   0.694  1.3566 -0.1666  0.6688
  425SOL     OW 1286   1.861   0.171   0.069 -0.3216  0.4861  0.1282
  425SOL    HW1 1287   1.906   0.255   0.060  1.3862 -0.4722 -0.7995
  425SOL    HW2 1288   1.921   0.108   0.029 -1.9475 -1.0581  0.0470
  426SOL     OW 1289   1.927   1.481   0.980  0.1217  0.4738 -0.0248
  426SOL    HW1 1290   1.921   1.392   0.946 -0.0027 -1.1967  3.8858
  426SOL    HW2 1291   1.841   1.520   0.960 -0.4599 -0.8835 -0.2602
  427SOL     OW 1292   2.522   1.512   0.831 -0.4300  0.0347  0.1492
  427SOL    HW1 1293   2.567   1.450   0.889 -0.7565  0.2509  0.6441
  427SOL    HW2 1294   2.592   1.552   0.779 -0.2412 -0.9423 -0.3747
  428SOL     OW 1295   0.993   2.851   0.791  0.7109 -0.3531  0.0925
  428SOL    HW1 1296   1.015   2.767   0.750  0.4974  0.4416 -1.7402
  428SOL    HW2 1297   0.897   2.851   0.795  0.7415 -0.5978  1.0120
  429SOL     OW 1298   1.099   1.202   0.441 -0.2003  0.4067 -0.3721
  429SOL    HW1 1299   1.174   1.228   0.494 -0.7776 -0.0851  0.7118
  429SOL    HW2 1300   1.023   1.220   0.495 -0.7380 -1.4751 -0.4188
  430SOL     OW 1301   1.850   0.189   0.843 -0.1303 -0.6202 -0.3576
  430SOL    HW1 1302   1.835   0.175   0.937  2.5027 -1.7997 -0.0437
  430SOL    HW2 1303   1.847   0.101   0.805  1.0965 -0.4075 -0.9834
  431SOL     OW 1304   0.862   1.016   1.067  0.2792 -0.0770 -1.2096
  431SOL    HW1 1305   0.957   1.026   1.068  0.1717  1.1160 -1.1055
  431SOL    HW2 1306   0.843   0.975   0.982  0.9982 -2.0932 -0.4644
  432SOL     OW 1307   1.832   1.818   1.355 -0.1135  0.1906  0.0488
  432SOL    HW1 1308   1.796   1.736   1.388  1.0215 -0.2451  0.2265
  432SOL    HW2 1309   1.910   1.792   1.306  0.8653  1.2453  1.0009
  433SOL     OW 1310   2.398   0.816   2.377 -0.5256  0.0473  0.4460
  433SOL    HW1 1311   2.355   0.847   2.298 -1.5113 -0.5716  0.7113
  433SOL    HW2 1312   2.453   0.744   2.347  2.1184  2.2011 -0.2386
  434SOL     OW 1313   1.784   1.520   2.122  0.2297 -0.1277 -0.0503
  434SOL    HW1 1314   1.733   1.565   2.189 -2.5646 -0.2951 -1.8877
  434SOL    HW2 1315   1.829   1.449   2.168  0.8586  1.5521  2.0659
  435SOL     OW 1316   2.527   1.579   2.630  0.4027  0.0741 -0.0606
  435SOL    HW1 1317   2.533   1.674   2.641  1.6663 -0.0020  0.1206
  435SOL    HW2 1318   2.565   1.543   2.710 -2.7583 -0.6600  1.2580
  436SOL     OW 1319   0.934   0.533   2.581 -0.2687  0.2151 -0.2809
  436SOL    HW1 1320   0.965   0.621   2.557  2.8050 -0.6463  0.0662
  436SOL    HW2 1321   0.968   0.476   2.512 -0.9968 -0.8846  0.2424
  437SOL     OW 1322   0.080   2.081   0.098  0.0639  0.5202 -0.0068
  437SOL    HW1 1323  -0.009   2.074   0.134  0.1610  0.9681  0.3326
  437SOL    HW2 1324   0.072   2.051   0.008 -0.3569  0.1844  0.1410
  438SOL     OW 1325   0.225   2.183   1.000 -1.0641  0.7767  0.2464
  438SOL    HW1 1326   0.261   2.101   1.035  1.2261  1.4539 -0.3273
  438SOL    HW2 1327   0.245   2.180   0.907 -1.6477  1.6629  0.0841
  439SOL     OW 1328   1.031   0.882   0.580 -0.2358 -0.1524 -0.3165
  439SOL    HW1 1329   0.951   0.845   0.543  0.0852  0.3704 -1.5823
  439SOL    HW2 1330   1.035   0.971   0.545  0.7628 -0.0870 -0.0624
  440SOL     OW 1331   0.027   0.816   0.026 -0.0889 -0.2596 -0.1649
  440SOL    HW1 1332  -0.041   0.866  -0.020 -0.9967  0.3164  1.6795
  440SOL    HW2 1333  -0.012   0.729   0.038  0.2990 -0.5243 -0.8020
  441SOL     OW 1334   1.583   2.142   0.429 -0.3252 -0.0946  0.4532
  441SOL    HW1 1335   1.632   2.224   0.437 -0.8847  0.1638  1.4933
  441SOL    HW2 1336   1.648   2.073   0.440  0.1509  0.1953 -0.4308
  442SOL     OW 1337   1.786   1.656   2.353 -0.5612  0.4612 -0.3180
  442SOL    HW1 1338   1.727   1.602   2.405  2.3807 -0.7119  2.1486
  442SOL    HW2 1339   1.781   1.742   2.393  0.4221 -0.0116  0.8750
  443SOL     OW 1340   1.627   0.326   1.864  0.1343  0.1253  0.0003
  443SOL    HW1 1341   1.641   0.248   1.810 -0.4286  1.2739 -1.8829
  443SOL    HW2 1342   1.670   0.396   1.816 -4.1367  2.0971 -1.4996
  444SOL     OW 1343   2.438   1.613   2.039  0.3884  0.2022  0.1670
  444SOL    HW1 1344   2.502   1.566   1.985  0.5373  0.9446 -0.3185
  444SOL    HW2 1345   2.459   1.586   2.128  0.3106 -0.8361 -0.1106
  445SOL     OW 1346   2.611   2.677   1.370  0.0049  0.1482 -0.2876
  445SOL    HW1 1347   2.549   2.605   1.381 -0.2109 -0.1078 -2.7103
  445SOL    HW2 1348   2.560   2.756   1.389 -0.6264 -0.1644 -0.6391
  446SOL     OW 1349   2.850   0.997   1.774 -0.1521 -0.6352  0.1619
  446SOL    HW1 1350   2.873   1.049   1.851 -1.6221  0.4271 -0.0771
  446SOL    HW2 1351   2.932   0.954   1.749  0.6073 -0.0920  1.6289
  447SOL     OW 1352   1.954   2.176   2.653 -0.2069  0.3055 -0.6548
  447SOL    HW1 1353   2.042   2.193   2.620 -0.0432 -0.5189 -0.6550
  447SOL    HW2 1354   1.902   2.251   2.621  0.2576  0.2510 -1.5681
  448SOL     OW 1355   1.645   2.531   0.138  0.0022 -0.5068 -0.0275
  448SOL    HW1 1356   1.649   2.461   0.073 -1.1525 -0.8370  0.2423
  448SOL    HW2 1357   1.552   2.543   0.155  0.2735 -1.0428  2.1893
  449SOL     OW 1358   0.596   2.507   1.602  0.2827 -0.3770  0.6166
  449SOL    HW1 1359   0.591   2.452   1.524  0.5925 -0.3213  0.5542
  449SOL    HW2 1360   0.680   2.483   1.642 -0.7285 -1.8248  2.0035
  450SOL     OW 1361   0.081   1.715   0.575  0.4176  0.0407 -0.2359
  450SOL    HW1 1362   0.128   1.749   0.652 -0.4610 -0.8433  0.7201
  450SOL    HW2 1363   0.118   1.763   0.501 -0.9842  3.3653  1.0357
  451SOL     OW 1364   1.207   1.977   1.359  0.7869 -0.1284  0.2148
  451SOL    HW1 1365   1.158   1.902   1.391  0.3011  0.6564  1.3820
  451SOL    HW2 1366   1.294   1.969   1.399 -0.0961  1.3377  2.6135
  452SOL     OW 1367   0.975   1.219   0.667 -0.2994  0.4274 -0.2360
  452SOL    HW1 1368   0.880   1.229   0.676 -0.2449  1.7185 -0.8877
  452SOL    HW2 1369   1.009   1.230   0.756 -0.8270 -1.3495  0.2296
  453SOL     OW 1370   2.607   1.846   0.680  0.4098 -0.4767  0.2376
  453SOL    HW1 1371   2.673   1.890   0.734  0.2991 -0.0137  0.0020
  453SOL    HW2 1372   2.647   1.763   0.655  0.9034 -0.1981  0.0990
  454SOL     OW 1373   0.507   2.003   2.613  0.5167  0.6641  0.2096
  454SOL    HW1 1374   0.499   2.069   2.544 -2.6553 -3.2743 -3.7736
  454SOL    HW2 1375   0.575   1.944   2.581 -1.7241 -1.8039 -0.2995
  455SOL     OW 1376   2.041   2.010   1.472  0.3115 -0.3223  0.1208
  455SOL    HW1 1377   1.963   1.958   1.451 -0.2899  0.5003  0.2744
  455SOL    HW2 1378   2.007   2.097   1.492  1.1554 -0.2667  1.4161
  456SOL     OW 1379   0.325   1.899   2.421 -0.0254  0.2392 -0.3223
  456SOL    HW1 1380   0.337   1.804   2.430 -0.0956  0.2554 -0.0528
  456SOL    HW2 1381   0.360   1.935   2.502  0.4898  0.4870 -0.6501
  457SOL     OW 1382   1.979   1.118   2.226 -0.4034  0.7833  0.0432
  457SOL    HW1 1383   1.915   1.047   2.226 -0.4538  0.8269  0.4668
  457SOL    HW2 1384   2.052   1.084   2.279  0.9270 -0.1578 -2.2549
  458SOL     OW 1385   0.269   1.407   0.981 -0.0476  0.1237  0.1649
  458SOL    HW1 1386   0.176   1.401   0.960 -0.1701 -1.8262  0.9750
  458SOL    HW2 1387   0.273   1.394   1.076  0.9093  2.4730  0.5075
  459SOL     OW 1388   1.852   1.014   1.903 -0.4698 -0.0513 -0.0848
  459SOL    HW1 1389   1.887   0.933   1.866  1.4686 -0.2364  1.9320
  459SOL    HW2 1390   1.927   1.072   1.908 -1.5220  1.3547 -0.1174
  460SOL     OW 1391   0.304   1.499   0.622  0.0735 -0.4662 -0.0414
  460SOL    HW1 1392   0.260   1.581   0.645 -0.6277 -0.4398 -1.3943
  460SOL    HW2 1393   0.397   1.520   0.622 -0.0714  0.1997  0.1239
  461SOL     OW 1394   2.359   2.557   0.437 -0.1292 -0.9514 -0.2755
  461SOL    HW1 1395   2.369   2.649   0.459  2.1948 -1.0158 -0.8035
  461SOL    HW2 1396   2.391   2.510   0.515  0.5002 -1.2555 -0.7009
  462SOL     OW 1397   0.979   0.298   2.735 -0.8551  0.1289 -0.1780
  462SOL    HW1 1398   0.922   0.225   2.710 -2.6902  1.4889 -0.1495
  462SOL    HW2 1399   0.946   0.373   2.685  1.5449  0.7924 -0.9046
  463SOL     OW 1400   1.585   1.011   1.630 -0.4517  0.6020  0.0755
  463SOL    HW1 1401   1.604   1.105   1.631  0.3949  0.4415  0.1535
  463SOL    HW2 1402   1.509   1.001   1.687  0.2654  1.0769  1.1408
  464SOL     OW 1403   2.181   0.202   1.418  0.3896  0.3561  0.5410
  464SOL    HW1 1404   2.183   0.109   1.441 -0.5283  0.8526  2.9138
  464SOL    HW2 1405   2.271   0.231   1.428  0.5806 -0.1517  0.3461
  465SOL     OW 1406   0.871   1.990   0.441  0.7553  0.4209 -0.1060
  465SOL    HW1 1407   0.895   1.907   0.400 -0.8738 -1.5603  2.6732
  465SOL    HW2 1408   0.947   2.014   0.494  0.4895 -0.3822  0.6490
  466SOL     OW 1409   1.307   0.236   1.860 -0.1320 -0.1094 -0.2459
  466SOL    HW1 1410   1.261   0.152   1.860 -0.8872  0.2851  0.4629
  466SOL    HW2 1411   1.241   0.299   1.889  1.3407  0.1641  2.9431
  467SOL     OW 1412   2.870   1.855   1.681  0.2242 -0.0798  0.0468
  467SOL    HW1 1413   2.914   1.935   1.652  1.3737 -0.0686  1.6913
  467SOL    HW2 1414   2.904   1.787   1.623 -1.5723  0.7331 -2.0703
  468SOL     OW 1415   1.673   0.680   2.875 -0.3057  0.3920  0.1031
  468SOL    HW1 1416   1.587   0.723   2.873 -0.3272  0.4226  1.1829
  468SOL    HW2 1417   1.736   0.750   2.861 -0.3846  0.6591  0.9933
  469SOL     OW 1418   2.093   0.043   2.869  0.1671  0.5953 -0.2628
  469SOL    HW1 1419   2.165   0.067   2.810  1.4859 -0.5516  0.7879
  469SOL    HW2 1420   2.077  -0.049   2.852  2.5070 -0.5953  2.9073
  470SOL     OW 1421   0.269   2.771   1.016 -0.3897  0.4076 -0.0382
  470SOL    HW1 1422   0.288   2.846   1.073 -0.8820 -1.2995  2.5470
  470SOL    HW2 1423   0.326   2.784   0.940  2.4471  1.4454  2.0829
  471SOL     OW 1424   2.366   0.507   0.205 -0.3744  0.3543 -0.7207
  471SOL    HW1 1425   2.313   0.559   0.265 -0.0543 -0.2242  0.0789
  471SOL    HW2 1426   2.448   0.492   0.252 -0.4700 -0.8878 -0.9289
  472SOL     OW 1427   1.822   0.505   0.237 -0.0301 -0.1463  0.0913
  472SOL    HW1 1428   1.868   0.478   0.317  1.1308  2.1681  0.2862
  472SOL    HW2 1429   1.879   0.473   0.166  0.9612  1.0738  0.3010
  473SOL     OW 1430   1.164   0.838   1.792 -0.0456 -0.4180  0.0427
  473SOL    HW1 1431   1.142   0.924   1.754  0.5068 -0.4868 -0.4594
  473SOL    HW2 1432   1.256   0.847   1.819  0.0678 -0.9035 -0.1766
  474SOL     OW 1433   0.856   1.255   2.642 -0.3047 -0.3721 -0.4023
  474SOL    HW1 1434   0.876   1.174   2.596 -2.4692 -0.9014 -0.4933
  474SOL    HW2 1435   0.939   1.280   2.684  0.4754 -2.4334 -0.6304
  475SOL     OW 1436   0.367   0.882   0.093 -0.6255 -0.3998 -0.0952
  475SOL    HW1 1437   0.389   0.936   0.169  1.2943 -0.2019 -0.7271
  475SOL    HW2 1438   0.347   0.796   0.130 -2.7597  0.4334  0.8368
  476SOL     OW 1439   2.823   2.738   2.122  0.0992 -0.0889 -0.0091
  476SOL    HW1 1440   2.893   2.781   2.073  0.4051 -1.6896 -1.0311
  476SOL    HW2 1441   2.867   2.699   2.198  0.2667 -0.7517 -0.4388
  477SOL     OW 1442   0.042   2.620   2.529 -0.1756  0.5472 -0.5255
  477SOL    HW1 1443  -0.039   2.570   2.535  1.0729 -1.4133  2.8246
  477SOL    HW2 1444   0.092   2.578   2.459 -0.1964 -1.3249  0.5321
  478SOL     OW 1445   1.588   2.754   0.409 -0.5484  0.2838 -0.1430
  478SOL    HW1 1446   1.600   2.692   0.480 -0.9349  0.6387  0.2371
  478SOL    HW2 1447   1.655   2.731   0.344 -1.1421 -0.9792 -0.3304
  479SOL     OW 1448   2.832   1.347   1.202  0.3723 -0.0631  0.3558
  479SOL    HW1 1449   2.832   1.381   1.292  1.4571  0.0855  0.3175
  479SOL    HW2 1450   2.917   1.373   1.167 -0.3591  0.5994 -1.0044
  480SOL     OW 1451   2.476   0.118   1.889  0.1365 -0.3372  0.5135
  480SOL    HW1 1452   2.437   0.157   1.968 -1.0307 -0.1494 -0.1348
  480SOL    HW2 1453   2.552   0.174   1.870  0.8506 -0.7872  1.8794
  481SOL     OW 1454   0.115   0.610   2.618 -0.1713 -0.1987 -0.2706
  481SOL    HW1 1455   0.141   0.590   2.708  0.6384  0.5414 -0.3247
  481SOL    HW2 1456   0.137   0.703   2.607  0.5276 -0.4885 -1.4937
  482SOL     OW 1457   1.547   0.568   0.267 -0.5909 -0.6744  0.6785
  482SOL    HW1 1458   1.564   0.659   0.291 -1.1055 -0.5304  0.5085
  482SOL    HW2 1459   1.634   0.527   0.264 -0.2826  0.0127 -0.0607
  483SOL     OW 1460   0.978   1.227   1.362  0.5079  0.5544 -0.5955
  483SOL    HW1 1461   0.917   1.162   1.397  1.4716  0.6567  1.4612
  483SOL    HW2 1462   1.061   1.179   1.354  0.9673  1.2533 -0.0962
  484SOL     OW 1463   2.408   1.428   1.772  0.4835  0.2499  0.0129
  484SOL    HW1 1464   2.438   1.452   1.685  0.0636  0.6417 -0.0292
  484SOL    HW2 1465   2.324   1.473   1.782 -0.4553 -1.3764 -0.1682
  485SOL     OW 1466   1.410   2.024   2.314  0.0959  0.0844  0.8593
  485SOL    HW1 1467   1.346   2.078   2.361 -1.5041 -0.4297 -0.5938
  485SOL    HW2 1468   1.405   1.939   2.358  0.9201  0.4643  1.7042
  486SOL     OW 1469   0.450   0.567   2.153 -0.1558 -0.1843  0.5398
  486SOL    HW1 1470   0.497   0.613   2.223 -0.1744  2.2189 -0.8735
  486SOL    HW2 1471   0.513   0.504   2.120  0.7664  0.4242  1.0788
  487SOL     OW 1472   0.765   1.503   1.868 -0.2751 -0.3633 -0.6411
  487SOL    HW1 1473   0.731   1.414   1.873 -1.4097  0.1005  0.6427
  487SOL    HW2 1474   0.686   1.559   1.869  0.3322  0.6395 -2.7822
  488SOL     OW 1475   1.750   2.336   1.475 -0.0912  0.2428  0.0915
  488SOL    HW1 1476   1.719   2.273   1.409  0.3761  0.3422 -0.2260
  488SOL    HW2 1477   1.837   2.304   1.499  1.6509  2.5568 -2.5068
  489SOL     OW 1478   2.577   1.828   2.747  0.5918 -0.0964 -0.0340
  489SOL    HW1 1479   2.550   1.879   2.823 -1.0198 -1.2719  0.2124
  489SOL    HW2 1480   2.573   1.891   2.674 -0.3329  0.4031  0.4314
  490SOL     OW 1481   1.084   1.464   1.438 -0.0486  0.5007 -0.6004
  490SOL    HW1 1482   1.040   1.382   1.419  0.4455 -0.6558  2.5615
  490SOL    HW2 1483   1.033   1.502   1.511  0.8762  2.0012 -0.6833
  491SOL     OW 1484   1.131   1.947   2.033  0.4908 -0.0238 -0.3405
  491SOL    HW1 1485   1.224   1.965   2.016  0.5173  0.5437  0.3633
  491SOL    HW2 1486   1.132   1.894   2.112  0.2428 -0.5987 -0.7176
  492SOL     OW 1487   2.068   0.186   1.957 -0.0193  0.5274 -0.3878
  492SOL    HW1 1488   2.151   0.138   1.953 -1.0071 -1.1394 -2.0724
  492SOL    HW2 1489   2.085   0.266   1.906  1.1243  1.2066  0.9959
  493SOL     OW 1490   1.324   0.502   0.844  0.1584 -0.0084 -0.0152
  493SOL    HW1 1491   1.270   0.578   0.822 -0.7343 -0.5017  0.4196
  493SOL    HW2 1492   1.330   0.504   0.940  1.1598  0.1935 -0.0642
  494SOL     OW 1493   0.964   0.176   0.137 -0.1615  0.0240 -0.1589
  494SOL    HW1 1494   0.952   0.256   0.187 -0.1375 -0.4864  0.6919
  494SOL    HW2 1495   0.879   0.160   0.096  0.6050  2.0362 -2.7746
  495SOL     OW 1496   0.601   1.253   2.012  0.1377 -0.1691  0.0186
  495SOL    HW1 1497   0.534   1.186   2.023 -0.6543  0.7242  0.7294
  495SOL    HW2 1498   0.661   1.241   2.085 -0.3638  0.2994  0.5124
  496SOL     OW 1499   2.660   1.963   1.495  0.5941 -0.2227  0.3110
  496SOL    HW1 1500   2.639   1.906   1.422  0.4418  1.6370 -1.1567
  496SOL    HW2 1501   2.733   1.919   1.539  2.2584 -0.3005 -2.3400
  497SOL     OW 1502   0.217   1.428   0.071  0.1334  0.1903  0.2847
  497SOL    HW1 1503   0.307   1.396   0.073 -1.1188 -3.8592  0.9230
  497SOL    HW2 1504   0.206   1.476   0.153  0.8986 -2.1134  1.8145
  498SOL     OW 1505   0.995   2.580   1.469 -0.3088  0.2552 -0.5997
  498SOL    HW1 1506   0.944   2.509   1.430 -0.6732  1.0879 -1.7001
  498SOL    HW2 1507   1.032   2.542   1.549 -4.2163  0.0644  1.4185
  499SOL     OW 1508   2.013   0.605   1.521 -0.2367  0.0959 -0.7320
  499SOL    HW1 1509   2.054   0.621   1.606  2.7329 -0.7327 -1.8971
  499SOL    HW2 1510   2.017   0.510   1.510 -2.0554  0.0313 -1.1691
  500SOL     OW 1511   1.550   2.502   1.343 -0.0881  0.1123  0.4010
  500SOL    HW1 1512   1.620   2.436   1.347 -1.1395 -1.0868 -0.1707
  500SOL    HW2 1513   1.502   2.491   1.424 -1.9704 -1.8698 -0.8571
  501SOL     OW 1514   2.112   1.569   1.701  0.1741  0.1687  0.5703
  501SOL    HW1 1515   2.115   1.515   1.622  0.6565  0.9433  0.0537
  501SOL    HW2 1516   2.027   1.612   1.697 -0.4127 -0.8863  1.2233
  502SOL     OW 1517   1.393   0.293   1.283 -0.4981  0.0367 -0.4318
  502SOL    HW1 1518   1.418   0.267   1.371  1.3232  1.0591 -0.6101
  502SOL    HW2 1519   1.389   0.211   1.233 -0.7361 -0.4575  0.3841
  503SOL     OW 1520   2.856   2.263   0.815 -0.2114 -0.1871  0.1712
  503SOL    HW1 1521   2.876   2.261   0.909 -0.8856 -0.2222  0.3205
  503SOL    HW2 1522   2.915   2.198   0.777  0.0441 -0.1964  0.5789
  504SOL     OW 1523   1.793   1.608   0.645 -0.4794 -0.0537  0.8452
  504SOL    HW1 1524   1.888   1.601   0.636 -0.3893 -0.0725  1.7016
  504SOL    HW2 1525   1.779   1.627   0.738 -1.2813  0.5267  0.6173
  505SOL     OW 1526   0.124   0.372   2.450 -0.3820  0.5337 -0.1823
  505SOL    HW1 1527   0.063   0.418   2.507  0.5354 -0.6526  1.8717
  505SOL    HW2 1528   0.209   0.378   2.495  0.2399 -1.0319 -1.0554
  506SOL     OW 1529   1.837   2.004   0.283  0.5143 -0.5006 -0.3341
  506SOL    HW1 1530   1.911   1.963   0.237  1.1341  0.1822  0.0186
  506SOL    HW2 1531   1.802   2.067   0.220  1.7678  0.8965  0.3003
  507SOL     OW 1532   0.596   2.262   1.073 -0.1174 -0.4613 -0.0036
  507SOL    HW1 1533   0.661   2.330   1.091 -0.6926 -0.2139  1.3036
  507SOL    HW2 1534   0.531   2.305   1.019 -0.4421  0.0318  0.7566
  508SOL     OW 1535   0.633   2.726   0.222  0.1833  0.6235 -0.1006
  508SOL    HW1 1536   0.655   2.769   0.305 -1.0854 -0.7490  0.9781
  508SOL    HW2 1537   0.695   2.764   0.159  1.4963  1.3553  1.5496
  509SOL     OW 1538   1.140   2.211   1.710  0.1508 -0.0998  0.8108
  509SOL    HW1 1539   1.085   2.267   1.765  1.4415  0.6822  1.3445
  509SOL    HW2 1540   1.221   2.199   1.760  1.7548  1.3729 -1.2529
  510SOL     OW 1541   0.103   2.828   2.733  0.3110  0.6450 -0.1518
  510SOL    HW1 1542   0.016   2.867   2.724  0.1515  0.1581 -0.8846
  510SOL    HW2 1543   0.094   2.741   2.693  1.3159  0.8708 -0.9130
  511SOL     OW 1544   0.413   1.402   1.432 -0.1351 -0.1027 -0.2845
  511SOL    HW1 1545   0.396   1.474   1.371  0.8136 -0.0055 -0.4440
  511SOL    HW2 1546   0.364   1.425   1.511 -1.2394 -0.1464 -0.9352
  512SOL     OW 1547   1.765   1.501   0.040 -0.3241 -0.3926 -0.2778
  512SOL    HW1 1548   1.819   1.449   0.100 -0.4870 -0.3669 -0.1092
  512SOL    HW2 1549   1.819   1.509  -0.039 -0.1621 -0.5366 -0.1838
  513SOL     OW 1550   1.976   1.785   2.100 -0.1030  0.1162 -0.4420
  513SOL    HW1 1551   2.017   1.744   2.024 -3.1917 -0.4330 -1.9477
  513SOL    HW2 1552   1.931   1.714   2.144  1.4473  0.4713  1.8906
  514SOL     OW 1553   0.987   0.747   2.412 -0.3067 -0.1981 -0.2689
  514SOL    HW1 1554   0.954   0.752   2.322 -0.1728  1.4765 -0.2481
  514SOL    HW2 1555   1.062   0.688   2.406 -0.2947 -0.1078 -1.2554
  515SOL     OW 1556   2.753   0.710   0.332 -0.2404 -0.1846 -0.0837
  515SOL    HW1 1557   2.690   0.654   0.378 -0.6485  0.8363  0.6461
  515SOL    HW2 1558   2.707   0.737   0.253  0.7186 -2.5128 -1.5211
  516SOL     OW 1559   2.088   1.149   1.839  0.4948  0.4072 -0.0586
  516SOL    HW1 1560   2.172   1.131   1.880 -0.3215 -1.2685  1.0103
  516SOL    HW2 1561   2.105   1.144   1.745  2.0324  2.4605  0.0427
  517SOL     OW 1562   0.686   0.307   1.352 -0.3185 -0.4369  0.3646
  517SOL    HW1 1563   0.780   0.308   1.367  0.1333 -3.8698 -1.3836
  517SOL    HW2 1564   0.675   0.327   1.259 -1.0262 -2.5372 -0.0614
  518SOL     OW 1565   0.504   2.220   0.067 -0.3824 -0.4475  0.4263
  518SOL    HW1 1566   0.529   2.233  -0.024 -1.7406 -1.6427 -0.1752
  518SOL    HW2 1567   0.481   2.307   0.099  1.8272  0.2699  0.2273
  519SOL     OW 1568   1.924   2.223   0.717 -0.0963 -0.1969 -0.4498
  519SOL    HW1 1569   1.890   2.143   0.678 -1.2955 -0.2706  0.6630
  519SOL    HW2 1570   1.846   2.273   0.740  0.5966  0.4654  0.5410
  520SOL     OW 1571   0.588   1.253   2.722 -0.0981  0.2082  0.1054
  520SOL    HW1 1572   0.670   1.234   2.677  0.5139  0.3699  1.1351
  520SOL    HW2 1573   0.546   1.168   2.734  0.1180  0.0818 -0.0437
  521SOL     OW 1574   0.146   2.304   2.069  0.6661  0.2791  0.3284
  521SOL    HW1 1575   0.088   2.287   2.143  0.4163  0.0109  0.0694
  521SOL    HW2 1576   0.105   2.260   1.995  0.8118  0.7127 -0.0172
  522SOL     OW 1577   2.694   2.186   2.881 -0.9153 -0.3852  0.3259
  522SOL    HW1 1578   2.756   2.129   2.837  0.4100  0.3512  1.1667
  522SOL    HW2 1579   2.645   2.128   2.940  1.1289 -0.5603  1.9498
  523SOL     OW 1580   0.961   0.140   1.797  0.4955  0.5054 -0.2688
  523SOL    HW1 1581   1.004   0.123   1.714 -2.1628 -2.7238 -1.2252
  523SOL    HW2 1582   0.968   0.058   1.845 -2.1040  0.6759  0.5989
  524SOL     OW 1583   0.983   0.988   2.537  0.4780 -0.1868  0.1608
  524SOL    HW1 1584   1.068   0.972   2.578 -0.1896  0.6413  1.9783
  524SOL    HW2 1585   0.964   0.908   2.489  2.1348 -0.5024 -0.0273
  525SOL     OW 1586   1.076   2.532   1.753 -0.8657 -0.5704  0.0050
  525SOL    HW1 1587   1.165   2.559   1.778 -0.3958 -2.0217 -0.0165
  525SOL    HW2 1588   1.019   2.595   1.797  0.1858  0.7237 -0.4364
  526SOL     OW 1589   1.370   0.522   1.143  0.1400  0.1836  0.1453
  526SOL    HW1 1590   1.370   0.607   1.188  0.9674 -0.4491  1.3937
  526SOL    HW2 1591   1.381   0.458   1.213  0.2310 -0.9249 -0.8531
  527SOL     OW 1592   1.806   2.841   0.692 -0.1191 -0.3404 -0.0827
  527SOL    HW1 1593   1.732   2.876   0.643  0.6745  0.5670 -0.6901
  527SOL    HW2 1594   1.865   2.806   0.625  0.2154 -0.6152  0.3479
  528SOL     OW 1595   1.878   2.463   2.488  0.7526 -0.1768 -0.3602
  528SOL    HW1 1596   1.884   2.443   2.394  0.5927  0.6990 -0.5623
  528SOL    HW2 1597   1.954   2.518   2.506  0.3581  0.3112 -0.1538
  529SOL     OW 1598   0.161   2.116   0.700  0.1198  0.0857 -0.2543
  529SOL    HW1 1599   0.219   2.173   0.649  0.6244  2.2980  2.5848
  529SOL    HW2 1600   0.108   2.072   0.633  1.1632  2.2498 -2.7172
  530SOL     OW 1601   0.415   0.448   0.421  0.0803  0.2901  0.1537
  530SOL    HW1 1602   0.439   0.363   0.384  0.9964  0.8184 -0.5008
  530SOL    HW2 1603   0.482   0.466   0.486 -0.0016  0.5982  0.1563
  531SOL     OW 1604   0.547   2.894   2.711  0.1285 -0.0328 -0.2650
  531SOL    HW1 1605   0.502   2.891   2.795  0.1959 -0.8779 -0.2450
  531SOL    HW2 1606   0.477   2.885   2.646 -0.1881  2.7907 -0.4237
  532SOL     OW 1607   0.579   0.312   2.804 -0.0382  0.0275 -0.0566
  532SOL    HW1 1608   0.559   0.313   2.898  1.5686  0.2872  0.3236
  532SOL    HW2 1609   0.631   0.232   2.791  1.0987  0.7918 -0.3886
  533SOL     OW 1610   1.595   1.045   1.339  0.5615  0.4428 -0.0332
  533SOL    HW1 1611   1.623   0.963   1.299 -1.1305 -0.3948  0.4118
  533SOL    HW2 1612   1.609   1.031   1.433 -0.7978  0.1957  0.1480
  534SOL     OW 1613   0.529   2.291   0.586 -0.6667 -0.0183 -0.5030
  534SOL    HW1 1614   0.462   2.322   0.525  0.0205  1.1298 -0.7205
  534SOL    HW2 1615   0.607   2.280   0.533  0.1920  1.8637  0.2538
  535SOL     OW 1616   1.804   1.091   0.543  0.1455 -0.6273  0.0020
  535SOL    HW1 1617   1.789   1.012   0.595 -1.5941  0.6164  1.5145
  535SOL    HW2 1618   1.804   1.162   0.607 -1.9712  0.9882 -1.6480
  536SOL     OW 1619   0.686   0.718   1.951  0.2358  0.1460 -0.0177
  536SOL    HW1 1620   0.735   0.730   1.870  1.3159  1.5089  0.7831
  536SOL    HW2 1621   0.746   0.748   2.020 -0.9483 -0.1815  1.2122
  537SOL     OW 1622   0.828   2.419   2.351 -0.1782  0.1083 -0.5278
  537SOL    HW1 1623   0.786   2.502   2.329  1.1393  1.2883  1.1497
  537SOL    HW2 1624   0.797   2.400   2.439  0.9020 -0.2476 -0.2137
  538SOL     OW 1625   2.344   1.766   1.527  0.0373  0.0443 -0.0639
  538SOL    HW1 1626   2.411   1.782   1.593 -1.6079  1.1419  1.4296
  538SOL    HW2 1627   2.312   1.678   1.545  0.1676  0.0214  0.0540
  539SOL     OW 1628   0.119   1.800   0.310 -0.7207 -0.3532  0.3691
  539SOL    HW1 1629   0.133   1.711   0.276 -0.3865 -0.8014  1.6123
  539SOL    HW2 1630   0.196   1.848   0.280  0.3034 -1.1170  1.6279
  540SOL     OW 1631   1.064   2.866   0.326 -0.6892  0.1139  0.2857
  540SOL    HW1 1632   1.159   2.860   0.334 -0.6431 -0.2200 -0.4394
  540SOL    HW2 1633   1.049   2.943   0.271 -0.6826 -1.4975 -2.1307
  541SOL     OW 1634   2.289   1.431   0.742  0.1105  0.2024 -0.0988
  541SOL    HW1 1635   2.357   1.456   0.805 -0.7265  0.6929  0.6236
  541SOL    HW2 1636   2.331   1.365   0.687  1.1690  0.4840  0.3466
  542SOL     OW 1637   2.538   1.932   0.121  0.2591 -0.0028 -0.2426
  542SOL    HW1 1638   2.499   2.000   0.176 -0.1090 -0.7857  0.4868
  542SOL    HW2 1639   2.595   1.883   0.180  0.4572 -0.3786 -0.7386
  543SOL     OW 1640   1.557   2.889   1.956 -0.0500 -0.2908 -0.0642
  543SOL    HW1 1641   1.508   2.968   1.978 -1.7646 -1.1066 -0.7802
  543SOL    HW2 1642   1.641   2.922   1.922 -0.9952  1.2708 -1.0407
  544SOL     OW 1643   2.317   1.155   0.861  0.4781  0.1934  0.7019
  544SOL    HW1 1644   2.238   1.116   0.825 -0.7324  2.6973  0.4093
  544SOL    HW2 1645   2.374   1.167   0.784 -0.4286  1.7617  0.2239
  545SOL     OW 1646   1.574   1.619   1.232  0.3767 -0.0880  0.5342
  545SOL    HW1 1647   1.573   1.705   1.190 -0.6953 -0.4515 -0.2128
  545SOL    HW2 1648   1.667   1.597   1.239  0.6700  1.1530  0.8071
  546SOL     OW 1649   0.700   2.540   0.008 -0.0111 -0.0602  0.6795
  546SOL    HW1 1650   0.663   2.522   0.094 -1.6844 -1.7926 -0.3082
  546SOL    HW2 1651   0.623   2.548  -0.049  0.9742  2.6110 -0.4462
  547SOL     OW 1652   1.400   1.016   0.955 -0.4451  0.1620  0.1084
  547SOL    HW1 1653   1.492   1.011   0.981 -0.0806  2.0537 -0.6200
  547SOL    HW2 1654   1.403   1.022   0.859 -1.3528 -0.1482  0.0509
  548SOL     OW 1655   2.873   1.271   1.964  0.0114 -0.9574  0.0879
  548SOL    HW1 1656   2.905   1.183   1.984  0.3695 -0.5622  1.3532
  548SOL    HW2 1657   2.802   1.285   2.027 -0.0675 -0.3536 -0.1286
  549SOL     OW 1658   2.066   0.993   0.718  0.2429 -0.0464 -0.1361
  549SOL    HW1 1659   2.027   0.910   0.744  1.9077 -0.4661  1.2254
  549SOL    HW2 1660   2.099   0.976   0.629 -0.7055 -0.3601 -0.4376
  550SOL     OW 1661   2.005   0.438   0.785 -0.1583 -0.1017  0.3287
  550SOL    HW1 1662   2.012   0.419   0.692 -2.0536 -0.9968  0.3135
  550SOL    HW2 1663   1.954   0.364   0.821  0.4759  0.2467  2.0519
  551SOL     OW 1664   2.145   0.134   0.992  0.2172 -0.8677 -0.1852
  551SOL    HW1 1665   2.119   0.087   0.913 -0.0734 -0.8526 -0.1000
  551SOL    HW2 1666   2.206   0.075   1.036  1.5538 -0.2791 -1.1490
  552SOL     OW 1667   2.019   1.249   0.860  0.1328  0.1198  0.3478
  552SOL    HW1 1668   2.030   1.156   0.839  0.5368  0.9228 -3.7925
  552SOL    HW2 1669   2.099   1.290   0.828 -0.2433  2.0033  1.6800
  553SOL     OW 1670   1.108   1.765   0.163 -0.4164  0.2288  0.0695
  553SOL    HW1 1671   1.170   1.818   0.213  0.6317 -0.5081 -0.4193
  553SOL    HW2 1672   1.078   1.699   0.225 -1.8472  1.4353  0.7290
  554SOL     OW 1673   0.346   0.609   0.195 -0.1343  0.0241  0.0213
  554SOL    HW1 1674   0.252   0.599   0.213 -0.1887  0.1968 -0.1566
  554SOL    HW2 1675   0.389   0.559   0.264 -0.3541  0.0426  0.1743
  555SOL     OW 1676   0.172   0.900   2.596 -0.2684 -0.5940  0.4313
  555SOL    HW1 1677   0.120   0.969   2.639 -1.0026  0.1017 -1.4320
  555SOL    HW2 1678   0.242   0.880   2.658 -2.4016 -1.1574  2.8136
  556SOL     OW 1679   1.124   0.074   2.821 -0.3272 -0.1100  0.4246
  556SOL    HW1 1680   1.206   0.119   2.841 -0.4796 -0.0514  0.9272
  556SOL    HW2 1681   1.056   0.129   2.859 -0.7151  0.5102 -1.0813
  557SOL     OW 1682   1.321   1.956   2.882 -0.2572 -0.2052  0.3552
  557SOL    HW1 1683   1.363   1.871   2.868 -1.2593 -0.8876  1.2385
  557SOL    HW2 1684   1.380   2.003   2.941  0.8386  0.1640 -0.9997
  558SOL     OW 1685   0.437   2.001   1.289  0.1900  0.1085  0.3909
  558SOL    HW1 1686   0.511   2.062   1.283 -0.0994  0.3709 -0.7645
  558SOL    HW2 1687   0.473   1.925   1.335  0.8276  0.7372  0.9573
  559SOL     OW 1688   2.630   1.838   1.859 -0.6768 -0.1275  0.4894
  559SOL    HW1 1689   2.688   1.867   1.789 -0.3983  0.6610  1.0243
  559SOL    HW2 1690   2.627   1.743   1.850 -0.3276 -0.0719 -0.3366
  560SOL     OW 1691   2.266   2.450   2.181 -0.5579  0.6090 -0.2627
  560SOL    HW1 1692   2.227   2.490   2.104 -0.8104  2.1679  0.6345
  560SOL    HW2 1693   2.221   2.366   2.190 -3.3029  1.9951  0.3077
  561SOL     OW 1694   2.660   1.387   0.472  0.1839 -0.1721  0.1396
  561SOL    HW1 1695   2.629   1.463   0.423  0.6468 -0.1360 -0.0986
  561SOL    HW2 1696   2.587   1.324   0.467 -0.2676  0.3149  0.4867
  562SOL     OW 1697   0.094   2.585   1.136 -0.1055  0.0877 -0.3192
  562SOL    HW1 1698   0.049   2.643   1.196 -0.9695 -1.1080  0.2120
  562SOL    HW2 1699   0.158   2.642   1.092 -0.4381  1.2769  0.6744
  563SOL     OW 1700   2.017   0.491   1.132  0.3017 -0.5488 -0.3263
  563SOL    HW1 1701   1.926   0.492   1.161  0.4467 -1.0714  0.1680
  563SOL    HW2 1702   2.014   0.527   1.043 -0.4331 -0.8859 -0.4469
  564SOL     OW 1703   1.099   2.074   2.787 -0.3667  0.6794  0.0618
  564SOL    HW1 1704   1.126   2.165   2.773 -0.7228  0.4590 -2.5514
  564SOL    HW2 1705   1.172   2.035   2.836  0.7133  1.8949 -0.5076
  565SOL     OW 1706   1.463   2.796   1.649 -0.1500 -0.5715 -0.3058
  565SOL    HW1 1707   1.401   2.745   1.701 -0.3378  0.1821  0.2172
  565SOL    HW2 1708   1.516   2.843   1.713 -1.3963  1.5856 -0.7532
  566SOL     OW 1709   0.822   0.793   0.423  0.7193  0.1111 -1.1346
  566SOL    HW1 1710   0.815   0.698   0.433  0.9524  0.1341 -0.7348
  566SOL    HW2 1711   0.733   0.822   0.408  0.8533 -0.3854 -3.1976
  567SOL     OW 1712   0.132   2.068   1.632 -0.3095  0.1042 -0.0070
  567SOL    HW1 1713   0.211   2.094   1.678 -0.2706 -0.9145  0.5241
  567SOL    HW2 1714   0.162   2.038   1.546 -0.1553  0.0830  0.0551
  568SOL     OW 1715   0.740   0.568   0.974 -0.0435  0.8253  0.2287
  568SOL    HW1 1716   0.724   0.625   1.050  1.7694  0.1089  1.2019
  568SOL    HW2 1717   0.797   0.499   1.007 -0.9706 -0.7525 -1.2865
  569SOL     OW 1718   2.075   0.860   1.038  0.2072  0.2282  0.3679
  569SOL    HW1 1719   2.127   0.864   0.957 -0.2647  2.5886  0.1002
  569SOL    HW2 1720   2.006   0.797   1.019  0.8851 -0.2730 -0.5640
  570SOL     OW 1721   0.730   2.027   1.182  0.0979  0.3090 -0.2300
  570SOL    HW1 1722   0.687   2.085   1.119 -1.6406 -1.1292 -0.4646
  570SOL    HW2 1723   0.821   2.056   1.183 -0.6505  2.9486 -0.3898
  571SOL     OW 1724   1.234   2.321   1.193 -0.0216  0.1691 -0.2091
  571SOL    HW1 1725   1.322   2.284   1.197  0.5897  1.6436  1.5575
  571SOL    HW2 1726   1.194   2.297   1.276 -0.8354  0.5706 -0.4739
  572SOL     OW 1727   1.509   1.464   2.823 -0.1243  0.7743 -0.1407
  572SOL    HW1 1728   1.527   1.400   2.754  0.6060  1.2714 -0.4278
  572SOL    HW2 1729   1.592   1.470   2.871  0.2521  2.4684 -0.9374
  573SOL     OW 1730   2.724   2.026   2.112  0.0848  0.5984  0.3562
  573SOL    HW1 1731   2.807   2.045   2.154  0.7913  0.6798 -1.0166
  573SOL    HW2 1732   2.732   2.064   2.024 -0.4984 -1.4073 -0.6300
  574SOL     OW 1733   1.931   0.317   1.525 -0.1269  0.1172 -0.3369
  574SOL    HW1 1734   2.011   0.293   1.478  0.6073 -0.4574  1.1479
  574SOL    HW2 1735   1.867   0.251   1.499  0.4868 -0.6383  0.0201
  575SOL     OW 1736   1.346   2.831   0.260  0.2006  0.3289  0.2073
  575SOL    HW1 1737   1.419   2.800   0.313  1.3523  0.1322 -1.4565
  575SOL    HW2 1738   1.366   2.922   0.242  0.3100  0.1266 -0.7072
  576SOL     OW 1739   2.460   0.496   2.225  0.1474  0.1627 -0.0089
  576SOL    HW1 1740   2.453   0.451   2.141  2.1236 -0.5616  0.1586
  576SOL    HW2 1741   2.552   0.524   2.231 -0.6651  3.0978  0.5151
  577SOL     OW 1742   0.730   1.243   1.707 -0.3503 -0.0667 -0.1794
  577SOL    HW1 1743   0.779   1.322   1.684 -0.0033  0.3232  1.7185
  577SOL    HW2 1744   0.696   1.211   1.624 -0.8676  2.3210 -0.9783
  578SOL     OW 1745   2.181   1.941   1.923 -0.2201 -0.5440  0.6728
  578SOL    HW1 1746   2.273   1.965   1.931 -0.3682 -0.3509  1.9060
  578SOL    HW2 1747   2.179   1.847   1.936 -0.0858 -0.7157 -0.4323
  579SOL     OW 1748   2.423   0.592   1.101  0.1413 -0.1656  0.8300
  579SOL    HW1 1749   2.352   0.621   1.159 -0.6332  0.6722 -0.4700
  579SOL    HW2 1750   2.396   0.506   1.070 -0.0467 -0.0777  0.7504
  580SOL     OW 1751   1.230   1.339   2.888  0.4011 -0.1601  0.5349
  580SOL    HW1 1752   1.209   1.423   2.848 -1.4878 -1.2625 -0.9504
  580SOL    HW2 1753   1.237   1.358   2.982 -0.4682  1.5792  0.2867
  581SOL     OW 1754   1.089   1.046   2.240 -0.3491  0.3310 -0.0105
  581SOL    HW1 1755   1.104   0.972   2.298  2.2408  0.9970  0.2980
  581SOL    HW2 1756   1.060   1.007   2.158  0.2446 -0.9885  0.3822
  582SOL     OW 1757   0.287   1.206   2.290  0.1818 -0.0809 -0.3549
  582SOL    HW1 1758   0.351   1.157   2.341 -0.2204 -0.2670 -0.0154
  582SOL    HW2 1759   0.224   1.140   2.262 -0.9524  0.3693  1.0060
  583SOL     OW 1760   2.183   2.713   1.263 -0.1528 -0.3490  0.3072
  583SOL    HW1 1761   2.142   2.741   1.345 -2.0698 -0.6187 -0.4873
  583SOL    HW2 1762   2.113   2.667   1.216  0.9567 -0.4331 -1.3617
  584SOL     OW 1763   2.184   2.162   0.670  0.2197  0.0966  0.1468
  584SOL    HW1 1764   2.249   2.204   0.727  0.4387  0.3135 -0.2627
  584SOL    HW2 1765   2.100   2.180   0.713  0.4913 -0.9492  1.1599
  585SOL     OW 1766   1.381   2.222   1.812 -0.2784 -0.1801 -0.3457
  585SOL    HW1 1767   1.441   2.156   1.776 -0.8030 -1.3977  0.9055
  585SOL    HW2 1768   1.403   2.226   1.905  0.6156  2.4278 -0.5803
  586SOL     OW 1769   1.255   0.226   0.273 -0.8231 -0.1988  0.0159
  586SOL    HW1 1770   1.209   0.254   0.194 -1.0286 -1.8666 -0.4920
  586SOL    HW2 1771   1.187   0.227   0.341 -0.7937  0.6185  0.0461
  587SOL     OW 1772   0.349   0.155   0.589 -0.0616 -0.0198 -0.3443
  587SOL    HW1 1773   0.285   0.159   0.518  0.7593  0.2795 -1.0830
  587SOL    HW2 1774   0.398   0.237   0.582  1.1999 -0.7674 -0.5624
  588SOL     OW 1775   2.651   0.292   2.630 -0.5142 -0.2052  0.3135
  588SOL    HW1 1776   2.707   0.355   2.675  1.7078 -1.9396  0.1825
  588SOL    HW2 1777   2.643   0.325   2.541  1.4538 -0.5147 -0.0299
  589SOL     OW 1778   0.381   2.572   2.201  0.0660  0.3652 -0.1936
  589SOL    HW1 1779   0.421   2.657   2.184  0.9888  0.1243  0.6862
  589SOL    HW2 1780   0.454   2.515   2.225 -0.7054 -0.3017  0.6447
  590SOL     OW 1781   1.757   0.947   2.167 -0.3697  0.0849 -0.2330
  590SOL    HW1 1782   1.795   1.009   2.104 -0.0456  1.0109  0.8429
  590SOL    HW2 1783   1.699   0.892   2.114 -0.0712  0.8103 -1.3482
  591SOL     OW 1784   1.259   1.683   0.443 -0.1387  0.0735 -0.0062
  591SOL    HW1 1785   1.164   1.686   0.451 -0.3649  1.8550 -2.3839
  591SOL    HW2 1786   1.285   1.774   0.430  1.7856 -0.4985 -0.4505
  592SOL     OW 1787   1.842   1.665   1.725 -0.2552 -0.0339 -0.2118
  592SOL    HW1 1788   1.780   1.627   1.788 -1.1367 -0.3207 -1.2146
  592SOL    HW2 1789   1.795   1.661   1.642  0.3610  1.5788 -0.6528
  593SOL     OW 1790   0.005   2.273   2.336  0.6338  0.2195 -0.2711
  593SOL    HW1 1791   0.010   2.291   2.430  1.9550 -0.8981 -0.0936
  593SOL    HW2 1792   0.009   2.178   2.329  0.4417  0.2804 -1.4596
  594SOL     OW 1793   0.870   1.121   1.922 -0.3109  0.1216 -0.1657
  594SOL    HW1 1794   0.805   1.143   1.856  0.0248  1.4284 -0.0835
  594SOL    HW2 1795   0.822   1.120   2.004 -0.0251  2.3688  0.0715
  595SOL     OW 1796   0.937   1.463   0.151 -0.0153 -0.5516 -0.1849
  595SOL    HW1 1797   0.928   1.517   0.072 -0.3912 -0.7913 -0.3064
  595SOL    HW2 1798   0.964   1.377   0.118  2.6633  0.0631  0.1332
  596SOL     OW 1799   0.469   0.753   2.364 -0.3956  0.1600 -0.1175
  596SOL    HW1 1800   0.381   0.723   2.340 -0.1605 -1.0383  0.4227
  596SOL    HW2 1801   0.473   0.744   2.459  0.0739  0.8754 -0.0651
  597SOL     OW 1802   0.338   2.829   0.743  0.0082  0.1826  0.3624
  597SOL    HW1 1803   0.426   2.795   0.729  0.3141  0.5943  1.1975
  597SOL    HW2 1804   0.340   2.918   0.709 -0.2927 -0.0462 -0.2585
  598SOL     OW 1805   2.171   2.189   1.064  0.1046  0.2990  0.3869
  598SOL    HW1 1806   2.203   2.182   1.153  2.3211 -0.1359 -0.3881
  598SOL    HW2 1807   2.178   2.100   1.029  0.2243  0.6650 -0.5374
  599SOL     OW 1808   0.050   1.597   2.433 -0.0585 -0.1255 -0.3568
  599SOL    HW1 1809   0.113   1.581   2.362  0.1373 -1.6029  0.1147
  599SOL    HW2 1810   0.099   1.575   2.513 -0.0470  2.1574  0.3539
  600SOL     OW 1811   1.382   2.410   1.601  0.0245  0.4164  0.4895
  600SOL    HW1 1812   1.315   2.357   1.559  0.4931  0.1368  0.0905
  600SOL    HW2 1813   1.408   2.359   1.678  1.4103 -0.5969 -0.5918
  601SOL     OW 1814   0.180   0.834   1.692 -0.4366 -0.0978 -0.0700
  601SOL    HW1 1815   0.265   0.811   1.655 -0.0198  0.9046  0.2100
  601SOL    HW2 1816   0.117   0.790   1.636  0.2788 -1.7921  0.3864
  602SOL     OW 1817   0.555   1.497   1.048  0.5241  0.0903 -0.3610
  602SOL    HW1 1818   0.533   1.406   1.029  1.1036 -0.6702  2.3116
  602SOL    HW2 1819   0.646   1.495   1.076 -0.5665  0.7054  3.8963
  603SOL     OW 1820   0.131   2.782   0.357 -0.3764  0.1513 -0.3920
  603SOL    HW1 1821   0.127   2.814   0.447 -0.8859  1.3822 -0.8298
  603SOL    HW2 1822   0.222   2.757   0.344  0.4069  2.6723 -0.3979
  604SOL     OW 1823   0.221   1.250   0.553 -0.1586 -0.1287 -0.0154
  604SOL    HW1 1824   0.234   1.339   0.586 -3.7400 -0.3351  2.4917
  604SOL    HW2 1825   0.176   1.261   0.469 -0.5333  0.4376  0.2558
  605SOL     OW 1826   0.154   1.678   1.264  0.2251  0.0556  0.5002
  605SOL    HW1 1827   0.248   1.669   1.247  0.4731  1.4352  1.0230
  605SOL    HW2 1828   0.113   1.652   1.182  0.9062 -2.6606  0.8966
  606SOL     OW 1829   0.539   0.961   0.859 -0.4233  0.1719 -0.6666
  606SOL    HW1 1830   0.509   0.984   0.771 -0.6372 -1.0923 -0.9542
  606SOL    HW2 1831   0.625   0.921   0.846  0.8441  2.5122  0.0201
  607SOL     OW 1832   1.126   2.238   1.437  0.3295  0.5461 -0.1430
  607SOL    HW1 1833   1.109   2.231   1.531  0.0479  2.0928 -0.0658
  607SOL    HW2 1834   1.180   2.161   1.417  0.1620  0.0525  1.2241
  608SOL     OW 1835   0.992   2.492   0.195 -0.1778 -0.3348 -0.2715
  608SOL    HW1 1836   0.990   2.571   0.140 -1.4211 -0.6049 -0.6320
  608SOL    HW2 1837   0.925   2.507   0.261  1.6484  0.2063  1.5511
  609SOL     OW 1838   2.370   1.024   1.728  0.1628  0.0286  0.3365
  609SOL    HW1 1839   2.449   0.972   1.714  0.8571  1.5989 -2.1695
  609SOL    HW2 1840   2.391   1.081   1.801  1.4862  0.5852 -0.4465
  610SOL     OW 1841   1.112   1.134   1.809 -0.2197 -0.0269  0.8379
  610SOL    HW1 1842   1.020   1.156   1.828  0.1786  1.5197  1.0800
  610SOL    HW2 1843   1.140   1.202   1.747  1.1911  0.3815  1.8938
  611SOL     OW 1844   0.477   2.851   2.442 -0.1360 -0.4229  0.2616
  611SOL    HW1 1845   0.510   2.938   2.421  0.5854 -0.3150  1.6777
  611SOL    HW2 1846   0.382   2.861   2.447 -0.0064  0.5403  1.3538
  612SOL     OW 1847   2.592   1.577   0.258  0.1058  0.3664  0.1622
  612SOL    HW1 1848   2.537   1.588   0.181  1.9196  1.2784 -1.0738
  612SOL    HW2 1849   2.538   1.608   0.331 -2.0696 -1.5972 -0.5049
  613SOL     OW 1850   2.365   2.705   0.172 -0.7129 -0.3277 -0.1253
  613SOL    HW1 1851   2.424   2.776   0.196 -1.1527  0.0666 -0.2084
  613SOL    HW2 1852   2.370   2.644   0.246 -2.0319  0.8546  1.0089
  614SOL     OW 1853   0.277   0.007   1.932  0.3048 -0.0113 -0.1621
  614SOL    HW1 1854   0.310  -0.043   2.006 -0.8258 -0.3258  0.1486
  614SOL    HW2 1855   0.352   0.057   1.902  0.9933 -0.5132  0.6704
  615SOL     OW 1856   0.946   1.452   2.238 -0.2870  0.4598  0.6066
  615SOL    HW1 1857   0.945   1.537   2.195 -0.0807 -0.9981 -2.4892
  615SOL    HW2 1858   0.856   1.439   2.268 -0.4091  1.5554  0.7479
  616SOL     OW 1859   1.724   2.870   1.097  0.2400 -0.0447  0.4104
  616SOL    HW1 1860   1.782   2.824   1.157  1.9348 -1.4215 -2.1077
  616SOL    HW2 1861   1.683   2.800   1.046  0.0970  1.0958 -1.0886
  617SOL     OW 1862   1.748   0.817   2.415 -0.2548 -0.3484 -0.4336
  617SOL    HW1 1863   1.843   0.819   2.425 -0.2694  1.4675 -0.3330
  617SOL    HW2 1864   1.729   0.888   2.353 -1.5925 -0.3727 -0.0781
  618SOL     OW 1865   2.251   1.669   2.476  0.2063 -0.2285 -0.5913
  618SOL    HW1 1866   2.341   1.642   2.460  0.0877 -0.1733 -1.4276
  618SOL    HW2 1867   2.203   1.639   2.398 -0.3793  0.2606 -0.4271
  619SOL     OW 1868   2.001   2.778   0.299 -0.9201  0.2922 -0.2231
  619SOL    HW1 1869   2.093   2.757   0.284 -0.8894 -1.1854  1.6883
  619SOL    HW2 1870   1.961   2.773   0.212  0.8108  1.1789 -1.1256
  620SOL     OW 1871   0.457   1.652   0.122  0.4674  0.0240 -0.2365
  620SOL    HW1 1872   0.496   1.615   0.201  2.6858  1.7748 -0.3970
  620SOL    HW2 1873   0.488   1.595   0.051  2.1072  0.8571 -0.2491
  621SOL     OW 1874   2.345   0.113   2.745 -0.2401  0.3647  0.4103
  621SOL    HW1 1875   2.404   0.100   2.672  0.7912 -0.3976  1.3481
  621SOL    HW2 1876   2.362   0.202   2.775 -0.1933  0.4483  0.1387
  622SOL     OW 1877   0.489   1.258   0.914 -0.1731 -0.2519 -0.3243
  622SOL    HW1 1878   0.397   1.285   0.919 -0.8473 -2.5537  2.4746
  622SOL    HW2 1879   0.487   1.180   0.859 -0.0647 -0.7813  0.4082
  623SOL     OW 1880   0.001   2.036   2.730  0.1074 -0.0746 -0.2998
  623SOL    HW1 1881   0.010   1.962   2.670  0.5814  0.3604 -0.7816
  623SOL    HW2 1882  -0.012   2.112   2.672  3.8363  0.9194 -0.1366
  624SOL     OW 1883   0.054   0.287   2.205  0.0865  0.0249 -0.1231
  624SOL    HW1 1884   0.077   0.368   2.159 -1.7499 -0.5594 -2.2682
  624SOL    HW2 1885   0.077   0.304   2.297  2.2646  1.9269 -0.9168
  625SOL     OW 1886   0.605   2.775   1.621 -0.0582 -0.2571  0.0029
  625SOL    HW1 1887   0.599   2.686   1.587  1.1763 -0.4214  0.1966
  625SOL    HW2 1888   0.597   2.831   1.544 -0.2034 -0.5489 -0.1934
  626SOL     OW 1889   0.315   2.025   0.199 -0.8091 -0.0844  0.0541
  626SOL    HW1 1890   0.236   2.041   0.147 -0.8563  0.1191  0.1875
  626SOL    HW2 1891   0.387   2.057   0.144 -0.9029  0.6045  0.3190
  627SOL     OW 1892   1.531   1.957   0.167  0.2769  0.2985 -0.4531
  627SOL    HW1 1893   1.576   2.004   0.238  0.0875 -1.4693  0.8962
  627SOL    HW2 1894   1.598   1.898   0.132 -0.3680 -0.8395  0.1682
  628SOL     OW 1895   2.798   0.583   0.984 -0.2732  0.1173  0.3528
  628SOL    HW1 1896   2.761   0.511   1.035 -0.2522  0.2286  0.5290
  628SOL    HW2 1897   2.722   0.635   0.958 -0.3766 -0.5089 -0.6206
  629SOL     OW 1898   0.813   1.412   1.140 -0.2641 -0.2333  0.1121
  629SOL    HW1 1899   0.805   1.324   1.177  0.2538  0.1018  1.0696
  629SOL    HW2 1900   0.785   1.470   1.211 -0.0682  0.3961 -0.3172
  630SOL     OW 1901   2.315   2.298   1.519  0.0762  0.0184  0.6576
  630SOL    HW1 1902   2.387   2.235   1.522 -1.2874 -1.7093 -0.9949
  630SOL    HW2 1903   2.244   2.256   1.567 -0.5066  0.8003  0.4988
  631SOL     OW 1904   1.689   0.069   2.536 -0.7641  0.1836 -0.1207
  631SOL    HW1 1905   1.638   0.048   2.457  0.1777 -0.3267 -0.6143
  631SOL    HW2 1906   1.759   0.126   2.504  0.9342 -1.7680 -0.0982
  632SOL     OW 1907   0.034   0.151   0.152 -0.1104 -0.4313  0.0877
  632SOL    HW1 1908   0.025   0.158   0.247  1.4466  1.3605  0.1655
  632SOL    HW2 1909   0.104   0.087   0.139  0.5659  0.2583  0.2311
  633SOL     OW 1910   2.526   1.674   1.048  0.4268 -0.1974  0.5471
  633SOL    HW1 1911   2.516   1.637   0.960  0.2425  0.0387  0.4705
  633SOL    HW2 1912   2.440   1.709   1.070  0.8828  1.2484  0.1458
  634SOL     OW 1913   1.435   1.106   2.157  0.2094 -0.3102  0.0960
  634SOL    HW1 1914   1.425   1.011   2.148 -0.7967 -0.1735 -0.3507
  634SOL    HW2 1915   1.509   1.128   2.100  0.4927 -0.8210  0.2528
  635SOL     OW 1916   1.925   0.101   0.430  0.1853  0.0645 -0.0059
  635SOL    HW1 1917   1.940   0.011   0.401 -0.9238 -0.4572  0.9388
  635SOL    HW2 1918   1.889   0.146   0.354  0.9819 -0.2179 -0.5584
  636SOL     OW 1919   1.975   0.195   1.198  0.4461 -0.2192  0.1459
  636SOL    HW1 1920   2.017   0.189   1.113  1.5402 -0.5571  0.6864
  636SOL    HW2 1921   2.044   0.226   1.257  0.1922 -1.5587  1.2094
  637SOL     OW 1922   1.077   1.607   1.198  0.1329 -0.6290 -0.4946
  637SOL    HW1 1923   1.162   1.572   1.171 -0.2059 -0.6192 -1.6559
  637SOL    HW2 1924   1.056   1.562   1.279  1.8035  0.2600  0.4885
  638SOL     OW 1925   0.792   0.523   0.424  0.6707  0.0483 -0.1906
  638SOL    HW1 1926   0.805   0.429   0.418 -1.7082 -0.2482 -2.7323
  638SOL    HW2 1927   0.727   0.534   0.493  0.7414 -0.2202 -0.0832
  639SOL     OW 1928   1.967   2.473   2.813  0.2247  0.2032  0.2391
  639SOL    HW1 1929   1.995   2.382   2.811 -0.8818 -0.1448 -0.1486
  639SOL    HW2 1930   1.953   2.492   2.906  0.8455  0.1005  0.3527
  640SOL     OW 1931   0.730   0.757   1.244  0.8583  0.2897  0.4424
  640SOL    HW1 1932   0.707   0.768   1.336 -0.6456  1.7585 -0.0586
  640SOL    HW2 1933   0.777   0.837   1.222  0.2837  0.4287 -0.3191
  641SOL     OW 1934   0.503   1.995   0.437  0.2974 -0.0696 -0.1356
  641SOL    HW1 1935   0.451   2.011   0.358 -0.3442  2.7839  0.7578
  641SOL    HW2 1936   0.594   2.000   0.407  0.0850 -0.3869 -0.8799
  642SOL     OW 1937   0.576   0.214   2.354  0.3120 -0.1906 -0.5796
  642SOL    HW1 1938   0.663   0.232   2.389  0.1999  0.0107 -0.3999
  642SOL    HW2 1939   0.520   0.281   2.393  0.0637 -0.3585 -0.6410
  643SOL     OW 1940   1.670   2.660   2.279  0.3979  0.6847  0.5781
  643SOL    HW1 1941   1.761   2.634   2.262  1.0303  2.3361  1.3134
  643SOL    HW2 1942   1.649   2.622   2.364  0.3579  0.2481  0.3780
  644SOL     OW 1943   1.529   0.899   2.621 -0.1752 -0.1044 -0.0374
  644SOL    HW1 1944   1.598   0.965   2.625  2.2564 -2.4960  0.3594
  644SOL    HW2 1945   1.556   0.840   2.550 -2.8474 -0.1270 -1.1590
  645SOL     OW 1946   0.822   2.334   2.616 -0.0123 -0.4172  0.2744
  645SOL    HW1 1947   0.760   2.276   2.660 -2.0108  2.3602  1.4275
  645SOL    HW2 1948   0.863   2.384   2.687  0.5818  0.5505 -0.7122
  646SOL     OW 1949   2.466   1.507   1.525  0.5950  0.5059 -0.0841
  646SOL    HW1 1950   2.552   1.547   1.509  1.2792 -0.8880 -0.0208
  646SOL    HW2 1951   2.439   1.472   1.440 -0.1287  1.3122 -0.2005
  647SOL     OW 1952   2.589   0.445   0.327  0.1218  0.0846  0.5235
  647SOL    HW1 1953   2.573   0.390   0.403 -1.8881  0.5784  0.5249
  647SOL    HW2 1954   2.602   0.384   0.254 -0.4604 -0.3967  0.8185
  648SOL     OW 1955   2.789   2.483   1.561  0.2086  0.3662  0.2378
  648SOL    HW1 1956   2.804   2.552   1.496  0.9108 -1.4460 -1.6444
  648SOL    HW2 1957   2.787   2.402   1.509  0.7740 -1.1796  2.5033
  649SOL     OW 1958   0.086   2.815   1.688  0.5230  0.4125  0.0095
  649SOL    HW1 1959   0.013   2.792   1.746  0.1171  1.5693 -0.0191
  649SOL    HW2 1960   0.157   2.840   1.748  1.2064 -1.4614  0.0640
  650SOL     OW 1961   2.621   0.759   1.240  0.4780  0.6120  0.0121
  650SOL    HW1 1962   2.582   0.719   1.163  3.4456 -1.2062 -0.7166
  650SOL    HW2 1963   2.653   0.844   1.209  0.1729  0.6068 -0.3167
  651SOL     OW 1964   0.169   0.513   2.056  0.2407 -0.2162  0.7120
  651SOL    HW1 1965   0.155   0.606   2.043 -0.8501 -0.6122 -1.3816
  651SOL    HW2 1966   0.251   0.508   2.106 -0.6031  1.8640  2.4560
  652SOL     OW 1967   0.180   0.428   1.369  0.3651 -0.5029 -0.3766
  652SOL    HW1 1968   0.267   0.427   1.408 -0.8223 -0.3655  2.5677
  652SOL    HW2 1969   0.176   0.509   1.319  2.3041 -1.1667 -1.7574
  653SOL     OW 1970   0.865   1.685   0.676 -0.4119  0.1546 -0.2880
  653SOL    HW1 1971   0.884   1.686   0.770 -0.6900  1.4467 -0.2212
  653SOL    HW2 1972   0.793   1.623   0.666  0.5164 -1.0299  0.1462
  654SOL     OW 1973   2.065   2.621   2.603 -0.0418  0.4467 -0.0488
  654SOL    HW1 1974   2.054   2.556   2.672  2.2068 -0.0556 -0.1033
  654SOL    HW2 1975   2.152   2.658   2.618 -0.0415  1.2787 -1.8294
  655SOL     OW 1976   0.783   2.879   0.013  0.3396 -0.0074 -0.2922
  655SOL    HW1 1977   0.760   2.863  -0.079 -0.8926 -1.4180  0.2360
  655SOL    HW2 1978   0.857   2.821   0.029 -0.0470 -0.4603 -0.1386
  656SOL     OW 1979   1.738   2.134   2.265 -0.3560  0.1769  0.1948
  656SOL    HW1 1980   1.686   2.214   2.262 -0.4832  0.1192  0.7546
  656SOL    HW2 1981   1.725   2.100   2.353  0.5589  0.1062  0.3108
  657SOL     OW 1982   0.704   0.547   2.735 -0.0219 -0.6788  0.3061
  657SOL    HW1 1983   0.774   0.519   2.675  0.8884 -1.1763  1.5559
  657SOL    HW2 1984   0.642   0.474   2.734 -0.8147 -0.0347 -1.1725
  658SOL     OW 1985   0.253   0.437   0.679 -0.1545 -0.0069 -0.1459
  658SOL    HW1 1986   0.330   0.426   0.735 -0.3392  0.2919  0.1716
  658SOL    HW2 1987   0.289   0.445   0.591  0.0987 -1.1910 -0.1670
  659SOL     OW 1988   2.526   2.475   2.670  0.1031 -0.1086  0.3919
  659SOL    HW1 1989   2.563   2.548   2.620 -0.7327 -0.0744 -0.1997
  659SOL    HW2 1990   2.462   2.436   2.611 -1.6227  0.5392  1.7647
  660SOL     OW 1991   1.997   1.221   2.581 -0.3497 -0.0383  0.2229
  660SOL    HW1 1992   1.968   1.288   2.521 -1.4980  0.1983  1.0170
  660SOL    HW2 1993   2.027   1.149   2.525  1.7351  1.4224 -0.6606
  661SOL     OW 1994   1.147   0.973   0.285 -0.0675  0.9058 -0.1673
  661SOL    HW1 1995   1.123   1.052   0.333  1.2120  0.4793  1.2730
  661SOL    HW2 1996   1.214   0.931   0.340  0.0630 -0.6212 -1.4126
  662SOL     OW 1997   1.722   1.399   0.353 -0.1989  0.4030 -0.0777
  662SOL    HW1 1998   1.817   1.390   0.359 -0.2592  0.4839  1.3426
  662SOL    HW2 1999   1.709   1.480   0.303  0.4388 -0.4076 -1.6249
  663SOL     OW 2000   1.008   2.256   2.030  0.3991 -0.2891 -0.0734
  663SOL    HW1 2001   1.085   2.311   2.022  0.5117 -0.2534  1.0830
  663SOL    HW2 2002   1.034   2.186   2.091 -0.5435 -0.1175  0.5554
  664SOL     OW 2003   0.990   2.770   1.901  0.1654 -0.1127  0.7052
  664SOL    HW1 2004   0.898   2.781   1.877  0.5779 -0.1535 -1.0250
  664SOL    HW2 2005   0.987   2.732   1.989 -1.4398  0.8627  1.1085
  665SOL     OW 2006   1.222   1.072   0.022 -0.0026  0.2138  0.3111
  665SOL    HW1 2007   1.184   1.066   0.110  0.7068 -1.3881  0.5473
  665SOL    HW2 2008   1.206   1.163  -0.005  1.4001  1.3126  2.8331
  666SOL     OW 2009   2.659   0.683   2.335 -0.1784 -0.0157 -0.1366
  666SOL    HW1 2010   2.672   0.655   2.244  0.0601  1.4235 -0.5809
  666SOL    HW2 2011   2.671   0.778   2.332  2.1068 -0.1494  1.7874
  667SOL     OW 2012   1.169   2.329   2.761 -0.4170 -0.5541 -0.7814
  667SOL    HW1 2013   1.231   2.386   2.716 -0.0524  0.7149  1.2552
  667SOL    HW2 2014   1.086   2.377   2.759 -0.0660  0.1758  1.1025
  668SOL     OW 2015   2.374   2.520   1.377  0.2407 -0.1670 -0.0475
  668SOL    HW1 2016   2.320   2.532   1.299  0.1824  1.1198  0.1652
  668SOL    HW2 2017   2.332   2.448   1.425  1.4612 -2.4362 -2.1622
  669SOL     OW 2018   1.513   1.253   2.654 -0.6429  0.3246 -0.0718
  669SOL    HW1 2019   1.461   1.221   2.581 -0.6285 -2.0077  0.8348
  669SOL    HW2 2020   1.485   1.200   2.729  2.4527 -0.5511  0.6179
  670SOL     OW 2021   0.000   1.816   2.573  0.3536 -0.2101  0.2020
  670SOL    HW1 2022   0.061   1.744   2.590 -0.1401 -0.2707  1.9415
  670SOL    HW2 2023  -0.073   1.776   2.526  1.0456 -0.3951 -0.7362
  671SOL     OW 2024   2.167   1.040   2.414  0.3877  0.0603  0.9525
  671SOL    HW1 2025   2.254   1.044   2.376  0.5016  0.7170  1.2705
  671SOL    HW2 2026   2.158   0.949   2.443  0.4879 -0.3192 -0.1695
  672SOL     OW 2027   0.305   1.690   1.688 -0.5678  0.1878  0.4454
  672SOL    HW1 2028   0.275   1.763   1.743  1.4415  2.7980 -1.6476
  672SOL    HW2 2029   0.377   1.651   1.737  0.8340  2.1284  0.0804
  673SOL     OW 2030   0.610   1.940   0.933  0.2517  0.0900 -0.4735
  673SOL    HW1 2031   0.589   1.854   0.898 -0.0874  0.6963 -1.8036
  673SOL    HW2 2032   0.696   1.928   0.975  0.8746 -0.5738 -1.8747
  674SOL     OW 2033   2.451   1.185   1.926 -0.1117 -0.0198  0.5870
  674SOL    HW1 2034   2.457   1.256   1.863 -1.5086 -1.6597 -1.5518
  674SOL    HW2 2035   2.429   1.228   2.009  1.0055  2.1520 -0.1723
  675SOL     OW 2036   1.806   2.347   0.459  0.1845  0.7206 -0.0106
  675SOL    HW1 2037   1.838   2.435   0.478  0.3044  0.6091  0.3087
  675SOL    HW2 2038   1.828   2.296   0.537  1.9831 -0.0937 -0.9834
  676SOL     OW 2039   1.685   2.280   1.095 -0.5243  0.2015  0.5127
  676SOL    HW1 2040   1.629   2.300   1.020 -1.2686 -1.4845  0.5856
  676SOL    HW2 2041   1.771   2.263   1.057 -0.3992  1.3130  0.2572
  677SOL     OW 2042   1.378   2.666   2.379  0.3389  0.5202  0.4934
  677SOL    HW1 2043   1.352   2.757   2.368 -3.5872 -0.5318 -0.7385
  677SOL    HW2 2044   1.316   2.616   2.325 -0.4073 -3.1440  4.1847
  678SOL     OW 2045   0.582   2.744   1.164 -0.2761 -0.0352 -0.1085
  678SOL    HW1 2046   0.596   2.789   1.247 -0.2016  1.5751 -0.9485
  678SOL    HW2 2047   0.490   2.760   1.143 -0.4637 -0.9726 -0.0540
  679SOL     OW 2048   0.495   0.453   1.756  0.1788  0.1434 -0.0544
  679SOL    HW1 2049   0.453   0.460   1.842  0.3595 -0.3269  0.0783
  679SOL    HW2 2050   0.579   0.410   1.774  0.3014  0.2156 -0.4414
  680SOL     OW 2051   1.561   0.105   0.209  0.2943 -0.5816 -0.0791
  680SOL    HW1 2052   1.562   0.201   0.219  0.7484 -0.5041 -0.7536
  680SOL    HW2 2053   1.645   0.085   0.166  0.5763 -1.3743  0.8183
  681SOL     OW 2054   2.375   1.361   0.046  0.1219  0.4139  0.2995
  681SOL    HW1 2055   2.374   1.455   0.032  0.8989  0.4986  0.7747
  681SOL    HW2 2056   2.296   1.329   0.001 -0.5303  1.3669  0.7325
  682SOL     OW 2057   1.758   0.373   2.471 -0.1233  0.0405 -0.3333
  682SOL    HW1 2058   1.774   0.452   2.420 -0.3717  0.3234  0.0196
  682SOL    HW2 2059   1.708   0.403   2.547  1.7168 -0.0972  0.9933
  683SOL     OW 2060   2.406   0.354   1.304 -0.5441 -0.4321  0.3375
  683SOL    HW1 2061   2.472   0.421   1.284 -0.4042 -0.3260  1.1035
  683SOL    HW2 2062   2.352   0.349   1.226  0.8707 -1.1261 -0.6422
  684SOL     OW 2063   0.914   2.331   0.845 -0.0097  0.6341  0.4960
  684SOL    HW1 2064   0.872   2.256   0.803  3.1879  0.2686 -2.5461
  684SOL    HW2 2065   0.983   2.292   0.899  1.5904  1.2283 -1.0088
  685SOL     OW 2066   1.008   1.820   2.245 -0.5798 -0.0730 -0.6243
  685SOL    HW1 2067   0.962   1.795   2.165 -0.2219 -0.6444 -0.6605
  685SOL    HW2 2068   0.962   1.899   2.276 -1.0281 -0.1320 -1.1218
  686SOL     OW 2069   1.377   0.028   0.773 -0.1114 -0.2495  0.1346
  686SOL    HW1 2070   1.402  -0.003   0.686  0.2168  2.1945 -0.7177
  686SOL    HW2 2071   1.344   0.117   0.758 -0.7147 -0.0266  2.4377
  687SOL     OW 2072   0.361   2.682   0.236 -0.2466  0.0280 -0.4147
  687SOL    HW1 2073   0.457   2.688   0.231 -0.1632 -0.4114  0.4919
  687SOL    HW2 2074   0.342   2.590   0.220 -0.6047  0.2883 -1.5821
  688SOL     OW 2075   1.925   2.533   2.217 -0.0493 -0.6098 -0.7327
  688SOL    HW1 2076   2.002   2.589   2.205  0.5580 -1.3212 -0.2117
  688SOL    HW2 2077   1.905   2.501   2.130 -0.8825  1.0099 -1.1865
  689SOL     OW 2078   0.266   1.409   1.663 -0.3156 -0.3086 -0.5296
  689SOL    HW1 2079   0.272   1.503   1.678 -0.7283  0.0715 -2.4926
  689SOL    HW2 2080   0.330   1.371   1.723 -1.9181  0.9571  2.1672
  690SOL     OW 2081   2.605   0.353   0.758  0.3363  0.8983 -0.1445
  690SOL    HW1 2082   2.696   0.373   0.736  0.4565 -0.8849 -1.4610
  690SOL    HW2 2083   2.610   0.310   0.843  1.0783 -1.5102 -1.3196
  691SOL     OW 2084   0.712   1.545   1.379 -0.0525 -0.2175  0.6633
  691SOL    HW1 2085   0.768   1.510   1.448  1.0082  0.9671  0.4399
  691SOL    HW2 2086   0.635   1.579   1.425  0.6128  0.5053  1.2666
  692SOL     OW 2087   2.455   0.736   0.477  0.3061  0.1681 -0.2826
  692SOL    HW1 2088   2.359   0.732   0.472  0.2386  1.2949 -0.2307
  692SOL    HW2 2089   2.479   0.665   0.536 -0.4015 -0.8503 -1.1769
  693SOL     OW 2090   2.382   2.168   2.034  0.4076  0.2221  0.5584
  693SOL    HW1 2091   2.461   2.222   2.027  0.9335 -0.3425  1.8275
  693SOL    HW2 2092   2.412   2.079   2.014  0.1934 -0.0668  1.4838
  694SOL     OW 2093   2.696   0.953   0.832  0.0723 -0.1114  0.2538
  694SOL    HW1 2094   2.627   1.009   0.797 -0.2331 -1.1632 -0.9272
  694SOL    HW2 2095   2.658   0.865   0.831  1.2857 -0.6552 -0.0488
  695SOL     OW 2096   0.332   2.560   1.593  0.3919  0.2401  0.1717
  695SOL    HW1 2097   0.317   2.601   1.678 -0.1040 -1.7338  1.0813
  695SOL    HW2 2098   0.424   2.533   1.595  0.2270 -0.3266  0.3353
  696SOL     OW 2099   0.454   1.927   1.844  0.2828 -0.4566  0.4157
  696SOL    HW1 2100   0.418   2.007   1.882  1.0001 -0.3191  0.8414
  696SOL    HW2 2101   0.524   1.957   1.786 -0.2011 -0.7173 -0.3113
  697SOL     OW 2102   1.921   0.845   1.477 -0.8532 -0.1307  0.4778
  697SOL    HW1 2103   1.958   0.757   1.481 -0.7056 -0.1361 -0.6928
  697SOL    HW2 2104   1.994   0.903   1.501 -0.3193 -0.2019 -0.8888
  698SOL     OW 2105   1.438   0.335   0.420 -0.1174 -0.3748  0.0243
  698SOL    HW1 2106   1.481   0.408   0.374  0.6704 -1.0760 -0.3824
  698SOL    HW2 2107   1.371   0.305   0.359  0.8314 -1.2103 -0.6506
  699SOL     OW 2108   0.181   2.215   0.389 -0.3879 -0.0441 -0.0495
  699SOL    HW1 2109   0.189   2.257   0.303 -1.7700 -1.1443 -0.7418
  699SOL    HW2 2110   0.210   2.125   0.374 -0.2365 -0.1292  0.7386
  700SOL     OW 2111   1.271   1.345   1.560  0.2181 -0.7326  0.5121
  700SOL    HW1 2112   1.334   1.323   1.491  0.2502  0.2301  0.2242
  700SOL    HW2 2113   1.191   1.369   1.513 -0.3886 -1.9241  0.8720
  701SOL     OW 2114   1.612   0.117   0.492  0.3244  0.1223 -0.8217
  701SOL    HW1 2115   1.585   0.058   0.421 -0.0497  0.2369 -0.7743
  701SOL    HW2 2116   1.549   0.189   0.489 -0.3007 -0.3633  0.2656
  702SOL     OW 2117   2.678   1.661   1.473 -0.3541 -0.4403  0.0392
  702SOL    HW1 2118   2.765   1.633   1.501  0.6196  0.9889 -1.4258
  702SOL    HW2 2119   2.692   1.704   1.389 -2.2215  1.3901  0.5826
  703SOL     OW 2120   1.288   0.822   2.347  0.1711  1.2095 -0.4847
  703SOL    HW1 2121   1.291   0.758   2.418  1.3353  0.8083 -0.8654
  703SOL    HW2 2122   1.334   0.898   2.381 -0.9386  1.7463 -0.1446
  704SOL     OW 2123   0.015   1.657   0.973 -0.0209  0.2384  0.4853
  704SOL    HW1 2124  -0.078   1.674   0.985  0.0088  1.0912 -0.3568
  704SOL    HW2 2125   0.019   1.588   0.907 -0.0540  1.4834 -0.8708
  705SOL     OW 2126   0.519   0.377   0.860 -0.0401  0.0312 -0.5323
  705SOL    HW1 2127   0.596   0.425   0.891  0.0468 -0.4427 -0.0035
  705SOL    HW2 2128   0.555   0.297   0.822 -0.2111  0.2125 -1.0854
  706SOL     OW 2129   1.202   2.850   0.971  0.1595 -0.3561  0.0392
  706SOL    HW1 2130   1.115   2.839   0.935  0.3541 -0.4022 -0.4220
  706SOL    HW2 2131   1.260   2.853   0.895  0.6760 -1.3661  0.3726
  707SOL     OW 2132   1.461   1.506   0.901 -0.3502  0.1582 -0.6275
  707SOL    HW1 2133   1.385   1.509   0.960  0.0968  0.7786 -0.0721
  707SOL    HW2 2134   1.425   1.528   0.815 -0.7154  0.9873 -0.2754
  708SOL     OW 2135   1.459   0.839   2.149 -0.4008 -0.6607 -0.2783
  708SOL    HW1 2136   1.414   0.832   2.233  2.0429 -0.1343  1.1479
  708SOL    HW2 2137   1.486   0.749   2.128  2.6105 -0.3552  1.7023
  709SOL     OW 2138   0.854   1.637   2.846  0.0553 -0.5177  0.0738
  709SOL    HW1 2139   0.763   1.667   2.839 -0.0032 -0.6984  0.0425
  709SOL    HW2 2140   0.895   1.667   2.765  0.4644  1.0364  0.8318
  710SOL     OW 2141   2.844   2.752   1.286 -0.1254 -0.0225  0.2218
  710SOL    HW1 2142   2.752   2.735   1.304 -0.4109 -0.0051 -1.1117
  710SOL    HW2 2143   2.844   2.818   1.217  0.8074 -1.5605 -1.3596
  711SOL     OW 2144   1.213   1.728   2.370 -0.4514 -0.0961 -0.3579
  711SOL    HW1 2145   1.127   1.754   2.336 -1.3347 -0.7238  1.2754
  711SOL    HW2 2146   1.217   1.634   2.352  0.4209  0.1338 -1.4624
  712SOL     OW 2147   0.045   2.410   0.499 -0.1635  0.1566  0.2316
  712SOL    HW1 2148  -0.015   2.436   0.429  0.0974  0.1097 -0.0110
  712SOL    HW2 2149   0.096   2.338   0.462  0.7875  0.9048  0.0435
  713SOL     OW 2150   1.467   0.434   0.064  0.5567  0.4319 -0.1808
  713SOL    HW1 2151   1.371   0.440   0.061  0.2835 -2.0242  0.9952
  713SOL    HW2 2152   1.490   0.469   0.150  0.2245 -2.4421  1.2143
  714SOL     OW 2153   1.487   1.157   0.031  0.1437 -0.2222 -0.3386
  714SOL    HW1 2154   1.519   1.127   0.117 -0.6847 -0.7293 -0.1951
  714SOL    HW2 2155   1.463   1.249   0.045  0.7742 -0.0684 -0.2429
  715SOL     OW 2156   2.051   1.345   2.095  0.0218 -0.7026  0.4548
  715SOL    HW1 2157   2.035   1.273   2.156  1.8924 -0.7762  0.9108
  715SOL    HW2 2158   2.043   1.305   2.009 -2.5063 -0.6304  0.5649
  716SOL     OW 2159   1.704   1.632   1.496  0.5188  0.4172 -0.4828
  716SOL    HW1 2160   1.622   1.682   1.490  1.1264  1.6857  1.0472
  716SOL    HW2 2161   1.678   1.541   1.483 -1.2004  0.7441  0.4283
  717SOL     OW 2162   1.884   2.873   2.017  0.3611  0.0257  0.0815
  717SOL    HW1 2163   1.876   2.815   1.941 -0.4333 -1.3148  1.1480
  717SOL    HW2 2164   1.954   2.934   1.993 -1.3809  1.1613 -2.6718
  718SOL     OW 2165   2.155   1.362   1.176 -0.6313 -0.1080  0.0265
  718SOL    HW1 2166   2.172   1.268   1.174  0.7993  0.1380 -1.8267
  718SOL    HW2 2167   2.080   1.375   1.118 -2.2324 -0.2851  1.9487
  719SOL     OW 2168   1.561   0.007   2.330  0.2512 -0.1256 -0.4850
  719SOL    HW1 2169   1.540   0.053   2.248  1.9444 -0.0448 -0.9108
  719SOL    HW2 2170   1.589  -0.080   2.302 -1.1396 -0.8246  0.1886
  720SOL     OW 2171   1.760   0.486   1.690  0.3069  0.4613  0.3480
  720SOL    HW1 2172   1.751   0.552   1.621 -1.1865 -0.1466 -0.0700
  720SOL    HW2 2173   1.805   0.413   1.647  0.9772  0.7540  0.5237
  721SOL     OW 2174   0.297   2.882   0.006  0.1861  0.2156  0.1408
  721SOL    HW1 2175   0.225   2.861  -0.053  0.1258  1.1099 -0.1312
  721SOL    HW2 2176   0.260   2.875   0.094  0.5608 -2.1925  0.1684
  722SOL     OW 2177   0.924   2.865   1.409 -0.0821  0.4802  0.6849
  722SOL    HW1 2178   0.901   2.775   1.430 -1.3593  0.8008  0.7273
  722SOL    HW2 2179   0.992   2.857   1.343 -0.4255 -0.5230  0.4310
  723SOL     OW 2180   1.782   0.572   2.301  0.0457  0.2050 -0.3439
  723SOL    HW1 2181   1.785   0.647   2.361  0.1353 -0.4217  0.4498
  723SOL    HW2 2182   1.693   0.574   2.264 -0.3709  0.0005  0.6103
  724SOL     OW 2183   2.453   1.897   2.061  0.4113 -0.0480 -0.2668
  724SOL    HW1 2184   2.505   1.909   1.982  1.6700 -0.1629  0.5196
  724SOL    HW2 2185   2.450   1.802   2.074 -1.5925 -0.1842 -1.3056
  725SOL     OW 2186   1.425   1.873   1.496  0.0680  0.4169  0.3266
  725SOL    HW1 2187   1.447   1.890   1.587 -2.2941  0.5406  0.9454
  725SOL    HW2 2188   1.382   1.788   1.497 -1.5268  1.1658 -0.3532
  726SOL     OW 2189   1.745   1.676   0.270 -0.0379 -0.4027 -0.4537
  726SOL    HW1 2190   1.766   1.619   0.195 -1.0029  0.1893 -1.1988
  726SOL    HW2 2191   1.802   1.752   0.259 -0.2396 -0.2771 -0.6439
  727SOL     OW 2192   2.051   2.780   2.220  0.0568  0.2505 -0.2389
  727SOL    HW1 2193   1.991   2.812   2.153 -1.1444 -0.9710  0.1924
  727SOL    HW2 2194   2.008   2.802   2.303  0.5595  0.0137  0.0908
  728SOL     OW 2195   2.728   2.812   0.405 -0.1866 -0.1631 -0.6236
  728SOL    HW1 2196   2.812   2.832   0.447 -0.3328  0.4454 -0.6081
  728SOL    HW2 2197   2.710   2.721   0.429  0.6613 -0.4276 -0.9602
  729SOL     OW 2198   1.852   1.520   1.231  0.0446  0.0450  0.0296
  729SOL    HW1 2199   1.864   1.498   1.139  0.5388  1.3826 -0.2531
  729SOL    HW2 2200   1.941   1.530   1.265 -0.0673 -2.0085  1.0925
  730SOL     OW 2201   0.198   1.797   0.805  0.1960  0.0801  0.0824
  730SOL    HW1 2202   0.239   1.843   0.878  0.3018 -1.0667  0.7871
  730SOL    HW2 2203   0.112   1.771   0.839  0.3074 -0.5924 -0.1305
  731SOL     OW 2204   0.246   2.207   2.540 -0.3758 -0.1300 -0.7733
  731SOL    HW1 2205   0.200   2.158   2.471  0.7038 -0.6397 -1.1604
  731SOL    HW2 2206   0.179   2.262   2.579 -1.9148 -2.6277  0.3561
  732SOL     OW 2207   1.493   0.082   1.457 -0.6933  0.6974  0.2469
  732SOL    HW1 2208   1.465   0.012   1.516 -1.8886  0.5873 -0.3999
  732SOL    HW2 2209   1.483   0.044   1.369 -0.3252  1.3269 -0.0735
  733SOL     OW 2210   1.947   0.788   0.312  0.3675 -0.0431  0.4939
  733SOL    HW1 2211   1.880   0.756   0.252  1.9540  0.0687 -1.4249
  733SOL    HW2 2212   1.987   0.862   0.266  1.9856 -0.2770  1.4494
  734SOL     OW 2213   2.299   1.995   1.345  0.1716  0.0755  0.5897
  734SOL    HW1 2214   2.326   1.956   1.428 -0.3126 -1.5211  0.0315
  734SOL    HW2 2215   2.203   1.999   1.350  0.1333 -0.1174  0.0784
  735SOL     OW 2216   2.652   0.456   1.749 -0.1235  0.3930  0.4612
  735SOL    HW1 2217   2.718   0.492   1.689 -0.6018  1.2868  0.4435
  735SOL    HW2 2218   2.684   0.369   1.771 -0.8619 -0.7647 -2.5638
  736SOL     OW 2219   2.544   0.755   0.158 -0.2641  0.1577 -0.6099
  736SOL    HW1 2220   2.544   0.680   0.099 -0.1682  0.5984 -1.1775
  736SOL    HW2 2221   2.475   0.812   0.124  1.0648  1.3218 -1.4959
  737SOL     OW 2222   1.843   2.719   0.095 -0.1598 -0.4399  0.1576
  737SOL    HW1 2223   1.796   2.764   0.025  0.8794  0.4856  0.0363
  737SOL    HW2 2224   1.780   2.654   0.128 -0.0318 -2.3876 -2.9995
  738SOL     OW 2225   0.696   0.250   1.735 -0.1138  0.1745 -0.5285
  738SOL    HW1 2226   0.621   0.195   1.760 -1.3141  2.1390  0.4575
  738SOL    HW2 2227   0.770   0.211   1.782 -1.1004 -0.0900  0.8967
  739SOL     OW 2228   0.546   0.215   0.381 -0.2455  0.1888  0.2657
  739SOL    HW1 2229   0.530   0.188   0.290 -2.2998  0.3029  0.5547
  739SOL    HW2 2230   0.562   0.133   0.428  0.7416  0.1231 -0.1704
  740SOL     OW 2231   0.146   1.455   2.217 -0.0649  0.2967  0.0130
  740SOL    HW1 2232   0.059   1.446   2.179  0.1587  0.1398 -0.4677
  740SOL    HW2 2233   0.164   1.369   2.256  0.2859 -0.0027 -0.7791
  741SOL     OW 2234   2.594   2.709   2.561  0.1792  0.0253 -0.9067
  741SOL    HW1 2235   2.644   2.764   2.621  1.3968 -1.7331 -0.2050
  741SOL    HW2 2236   2.619   2.738   2.474  1.1677  0.2741 -0.5481
  742SOL     OW 2237   2.565   0.221   0.497  0.1103  0.3393  0.7562
  742SOL    HW1 2238   2.523   0.135   0.496  0.5594  0.0973 -1.0056
  742SOL    HW2 2239   2.534   0.262   0.577 -1.3275 -0.8712  0.8629
  743SOL     OW 2240   2.276   0.591   2.655 -0.1064  0.5515  0.5408
  743SOL    HW1 2241   2.286   0.579   2.561  0.9889  0.1074  0.6907
  743SOL    HW2 2242   2.186   0.621   2.667  0.4625  3.1444 -0.8938
  744SOL     OW 2243   2.082   2.445   0.534 -0.2524  0.1870  0.3618
  744SOL    HW1 2244   2.161   2.500   0.533 -1.3943  2.0023 -2.3190
  744SOL    HW2 2245   2.108   2.367   0.582  2.8096  1.1973  0.5927
  745SOL     OW 2246   0.030   0.937   0.282  0.2035  0.1195 -0.3370
  745SOL    HW1 2247  -0.010   0.850   0.275  2.2086 -0.9269  0.2665
  745SOL    HW2 2248   0.100   0.936   0.216 -0.7574  1.9131 -1.4585
  746SOL     OW 2249   0.020   1.011   2.332 -0.2599 -0.2208  0.2342
  746SOL    HW1 2250   0.010   1.084   2.393 -4.0187 -0.8173  0.5881
  746SOL    HW2 2251   0.032   0.934   2.389  1.7092 -0.2117 -0.0796
  747SOL     OW 2252   1.320   0.297   0.681  0.1375 -0.2903 -0.2614
  747SOL    HW1 2253   1.333   0.373   0.739 -1.4448 -0.2763  0.1351
  747SOL    HW2 2254   1.378   0.314   0.607  0.9285  0.5569  0.5123
  748SOL     OW 2255   0.719   2.133   2.801  0.4123 -0.8733  0.5582
  748SOL    HW1 2256   0.672   2.072   2.745  0.5829 -0.1050 -0.4492
  748SOL    HW2 2257   0.798   2.086   2.828  1.7403 -0.3792 -2.1018
  749SOL     OW 2258   1.948   1.455   2.440  0.7449  0.2702 -0.0476
  749SOL    HW1 2259   1.922   1.536   2.396 -1.3122 -1.5616 -2.5147
  749SOL    HW2 2260   2.036   1.437   2.407 -0.1347 -0.2277 -2.3095
  750SOL     OW 2261   1.125   2.049   0.561 -0.4827 -0.0890 -0.5473
  750SOL    HW1 2262   1.212   2.019   0.588 -1.2543 -0.7124  1.3869
  750SOL    HW2 2263   1.142   2.111   0.490  1.6340  1.2089  1.0088
  751SOL     OW 2264   2.154   0.999   1.583  0.0798 -0.2044  0.2241
  751SOL    HW1 2265   2.186   1.050   1.509 -1.9476  1.4002  0.3568
  751SOL    HW2 2266   2.224   1.003   1.648  0.7618  0.6987 -0.5543
  752SOL     OW 2267   1.641   1.089   0.808 -0.2150  0.6670  0.0113
  752SOL    HW1 2268   1.678   1.006   0.778 -0.5090  0.5413 -0.0107
  752SOL    HW2 2269   1.568   1.106   0.748  0.9896  1.9018 -1.1741
  753SOL     OW 2270   1.559   1.690   1.876 -0.0672 -0.6278  0.4797
  753SOL    HW1 2271   1.544   1.698   1.970 -0.1670 -1.3575  0.5312
  753SOL    HW2 2272   1.499   1.622   1.848  0.0812 -0.5301 -0.0879
  754SOL     OW 2273   0.597   1.743   2.793 -0.3641 -0.0251  0.4443
  754SOL    HW1 2274   0.589   1.828   2.750 -0.1204 -1.3245 -2.3492
  754SOL    HW2 2275   0.549   1.753   2.876 -0.9405  2.5842 -0.1290
  755SOL     OW 2276   2.406   2.749   1.829  0.1310 -0.2321  0.3621
  755SOL    HW1 2277   2.466   2.706   1.890  1.1058 -0.8729 -0.9914
  755SOL    HW2 2278   2.422   2.843   1.842 -0.7738 -0.2689  2.1197
  756SOL     OW 2279   2.834   1.255   1.483  0.4204  0.0156 -0.2166
  756SOL    HW1 2280   2.757   1.197   1.487  0.1497  0.3630 -0.3081
  756SOL    HW2 2281   2.902   1.208   1.531  0.3995 -0.6643 -0.8422
  757SOL     OW 2282   1.108   2.870   1.217 -0.1293 -0.2797 -0.0839
  757SOL    HW1 2283   1.174   2.822   1.267  1.0995  1.8078  0.4236
  757SOL    HW2 2284   1.146   2.880   1.130 -0.4561 -0.3670 -0.2385
  758SOL     OW 2285   0.732   1.382   0.321 -0.0049  0.0038 -0.2802
  758SOL    HW1 2286   0.679   1.462   0.314  0.1363 -0.0368 -2.4263
  758SOL    HW2 2287   0.811   1.401   0.272  0.1916 -1.3377 -0.5244
  759SOL     OW 2288   0.628   1.986   0.148 -0.4857  0.4588 -0.5815
  759SOL    HW1 2289   0.583   2.070   0.136  0.3268  1.1215  0.7569
  759SOL    HW2 2290   0.717   2.001   0.116  0.0430  0.5345  0.8535
  760SOL     OW 2291   1.295   1.642   1.505 -0.1443 -0.0726 -0.0147
  760SOL    HW1 2292   1.233   1.608   1.440  1.3543  0.8319 -2.0440
  760SOL    HW2 2293   1.315   1.567   1.561 -1.8719 -0.7562 -0.2620
  761SOL     OW 2294   2.729   1.011   1.119  0.3062 -0.4295  0.2895
  761SOL    HW1 2295   2.738   1.005   1.023 -0.8792  2.9710 -0.1514
  761SOL    HW2 2296   2.644   1.051   1.133 -0.3351 -2.4268  2.9376
  762SOL     OW 2297   2.664   0.936   2.232  0.0464  0.3197  0.1185
  762SOL    HW1 2298   2.745   0.982   2.254  0.2858  0.2869 -0.6555
  762SOL    HW2 2299   2.653   0.951   2.138  0.8476 -2.3253 -0.4645
  763SOL     OW 2300   2.711   1.777   1.248  0.6766 -0.2470  0.4549
  763SOL    HW1 2301   2.794   1.816   1.218  0.7553 -0.7188  0.0477
  763SOL    HW2 2302   2.666   1.751   1.167 -0.5102  1.2717  0.5828
  764SOL     OW 2303   0.367   1.097   0.703 -0.1063  0.0961 -0.4958
  764SOL    HW1 2304   0.323   1.143   0.631 -1.1602 -1.7845 -1.1414
  764SOL    HW2 2305   0.295   1.068   0.760  0.5840 -0.0079  0.3354
  765SOL     OW 2306   1.182   0.469   0.035  0.1551  0.2605  0.3224
  765SOL    HW1 2307   1.095   0.460   0.073  0.6250  1.4091  1.8181
  765SOL    HW2 2308   1.211   0.556   0.063  1.6966 -0.0119 -0.3132
  766SOL     OW 2309   1.097   2.655   0.645  0.2706  0.8961 -0.5430
  766SOL    HW1 2310   1.058   2.572   0.672 -0.3039  1.1943 -0.4438
  766SOL    HW2 2311   1.190   2.636   0.637  0.3274  0.5735  0.7386
  767SOL     OW 2312   2.510   2.264   1.277  0.6264  0.4256 -0.1394
  767SOL    HW1 2313   2.593   2.304   1.252  1.9114 -0.7434  1.9323
  767SOL    HW2 2314   2.463   2.333   1.323  1.6791  0.3582  1.0866
  768SOL     OW 2315   2.894   1.509   1.796 -0.0628 -0.3244  0.0996
  768SOL    HW1 2316   2.900   1.423   1.837  0.8336 -0.7222 -0.8218
  768SOL    HW2 2317   2.931   1.497   1.708 -0.3785  0.8835 -0.2229
  769SOL     OW 2318   1.281   2.539   2.615 -0.3087 -0.1661 -0.8521
  769SOL    HW1 2319   1.333   2.550   2.536 -1.7565 -0.0703 -1.8286
  769SOL    HW2 2320   1.328   2.588   2.682  1.1954 -0.6439 -1.5179
  770SOL     OW 2321   0.770   0.259   0.531  0.3507 -0.8677  0.1267
  770SOL    HW1 2322   0.752   0.206   0.609 -0.7756  1.5013  1.5970
  770SOL    HW2 2323   0.692   0.249   0.476  0.1325 -0.7602  0.4112
  771SOL     OW 2324   1.370   0.488   1.915 -0.2565  0.1654 -0.3588
  771SOL    HW1 2325   1.412   0.550   1.856 -1.4885  1.1098 -0.2759
  771SOL    HW2 2326   1.430   0.414   1.918  1.0381  1.1542 -0.8114
  772SOL     OW 2327   1.462   0.553   2.400 -0.1946 -0.2088 -0.5403
  772SOL    HW1 2328   1.401   0.602   2.455  1.3083  0.6277  0.4563
  772SOL    HW2 2329   1.507   0.494   2.461 -0.2076 -1.0341 -1.3086
  773SOL     OW 2330   1.161   1.302   2.324 -0.0261  0.0242  0.3285
  773SOL    HW1 2331   1.126   1.220   2.290  1.0900  0.4807 -2.1037
  773SOL    HW2 2332   1.090   1.366   2.313 -0.1213 -0.1209  0.1149
  774SOL     OW 2333   0.651   0.928   2.207 -0.2749  0.3030 -0.0148
  774SOL    HW1 2334   0.585   0.861   2.226 -1.3709  1.6878  1.3360
  774SOL    HW2 2335   0.734   0.887   2.228 -0.9177 -0.6420  0.7655
  775SOL     OW 2336   2.674   1.075   0.266 -0.4915  0.1570 -0.4662
  775SOL    HW1 2337   2.761   1.036   0.266 -1.1381 -1.3970 -1.1256
  775SOL    HW2 2338   2.663   1.113   0.179 -0.1725  1.1274 -0.0973
  776SOL     OW 2339   0.006   1.379   0.847  0.3915 -0.3531  0.0633
  776SOL    HW1 2340  -0.083   1.358   0.877  0.8080 -0.6588  1.1684
  776SOL    HW2 2341   0.015   1.333   0.764 -0.3364 -0.7004  0.1671
  777SOL     OW 2342   0.201   1.214   2.663 -0.7943  0.3592 -0.3854
  777SOL    HW1 2343   0.206   1.229   2.757 -1.4860  2.2170 -0.5847
  777SOL    HW2 2344   0.288   1.181   2.639 -0.5583  0.0166  0.8728
  778SOL     OW 2345   0.564   2.227   2.403  0.8201  0.0387 -0.1267
  778SOL    HW1 2346   0.645   2.230   2.352  0.4479  0.3424 -0.6992
  778SOL    HW2 2347   0.494   2.227   2.338  0.3591 -2.0757  0.2747
  779SOL     OW 2348   2.030   2.880   1.688 -0.0932 -0.1182 -0.8650
  779SOL    HW1 2349   2.026   2.797   1.736 -0.5020 -0.7812 -2.0043
  779SOL    HW2 2350   2.107   2.872   1.631 -0.7735 -0.2018 -1.8057
   2.89732   2.89732   2.89732
