Gromacs Runs One Microsecond At Cannonball Speeds in water
 2350
    1ACE   HH31    1   1.533   1.508   1.826
    1ACE    CH3    2   1.427   1.485   1.817
    1ACE   HH32    3   1.395   1.426   1.902
    1ACE   HH33    4   1.370   1.579   1.814
    1ACE      C    5   1.402   1.408   1.689
    1ACE      O    6   1.353   1.296   1.693
    2ALA      N    7   1.437   1.468   1.574
    2ALA      H    8   1.480   1.559   1.578
    2ALA     CA    9   1.419   1.411   1.441
    2ALA     HA   10   1.446   1.305   1.444
    2ALA     CB   11   1.271   1.423   1.400
    2ALA    HB1   12   1.209   1.370   1.472
    2ALA    HB2   13   1.242   1.528   1.398
    2ALA    HB3   14   1.256   1.379   1.302
    2ALA      C   15   1.512   1.481   1.340
    2ALA      O   16   1.561   1.590   1.366
    3NME      N   17   1.534   1.417   1.224
    3NME      H   18   1.489   1.328   1.209
    3NME    CH3   19   1.619   1.470   1.118
    3NME   HH31   20   1.580   1.565   1.083
    3NME   HH32   21   1.621   1.400   1.034
    3NME   HH33   22   1.720   1.484   1.155
    4SOL     OW   23   0.230   0.628   0.113
    4SOL    HW1   24   0.137   0.626   0.150
    4SOL    HW2   25   0.231   0.589   0.021
    5SOL     OW   26   0.225   0.275   0.996
    5SOL    HW1   27   0.260   0.258   1.088
    5SOL    HW2   28   0.137   0.230   0.984
    6SOL     OW   29   0.019   0.368   0.647
    6SOL    HW1   30  -0.063   0.411   0.686
    6SOL    HW2   31  -0.009   0.295   0.584
    7SOL     OW   32   0.569   1.275   1.165
    7SOL    HW1   33   0.476   1.268   1.128
    7SOL    HW2   34   0.580   1.364   1.209
    8SOL     OW   35   1.555   1.511   0.703
    8SOL    HW1   36   1.498   1.495   0.784
    8SOL    HW2   37   1.496   1.521   0.623
    9SOL     OW   38   1.135   0.703   0.717
    9SOL    HW1   39   1.192   0.781   0.692
    9SOL    HW2   40   1.075   0.729   0.793
   10SOL     OW   41   1.755   0.607   0.231
   10SOL    HW1   42   1.743   0.594   0.132
   10SOL    HW2   43   1.725   0.526   0.280
   11SOL     OW   44   0.768   1.144   1.023
   11SOL    HW1   45   0.690   1.161   1.083
   11SOL    HW2   46   0.802   1.231   0.987
   12SOL     OW   47   0.850   0.798   1.823
   12SOL    HW1   48   0.846   0.874   1.888
   12SOL    HW2   49   0.872   0.834   1.732
   13SOL     OW   50   0.685   1.012   0.665
   13SOL    HW1   51   0.754   0.996   0.735
   13SOL    HW2   52   0.612   1.069   0.703
   14SOL     OW   53   0.686   1.161   1.803
   14SOL    HW1   54   0.746   1.240   1.817
   14SOL    HW2   55   0.600   1.192   1.762
   15SOL     OW   56   0.335   1.435   1.061
   15SOL    HW1   57   0.257   1.404   1.008
   15SOL    HW2   58   0.393   1.493   1.004
   16SOL     OW   59   0.438   0.392   1.499
   16SOL    HW1   60   0.520   0.336   1.508
   16SOL    HW2   61   0.357   0.334   1.503
   17SOL     OW   62   1.603   0.447   0.737
   17SOL    HW1   63   1.529   0.493   0.687
   17SOL    HW2   64   1.654   0.515   0.790
   18SOL     OW   65   0.231   1.713   0.483
   18SOL    HW1   66   0.265   1.790   0.537
   18SOL    HW2   67   0.275   1.713   0.393
   19SOL     OW   68   1.127   1.341   1.690
   19SOL    HW1   69   1.174   1.341   1.778
   19SOL    HW2   70   1.079   1.254   1.679
   20SOL     OW   71   0.230   1.434   0.538
   20SOL    HW1   72   0.204   1.530   0.538
   20SOL    HW2   73   0.159   1.380   0.583
   21SOL     OW   74   0.240   1.091   0.886
   21SOL    HW1   75   0.254   1.007   0.938
   21SOL    HW2   76   0.185   1.155   0.941
   22SOL     OW   77   0.620   1.786   1.439
   22SOL    HW1   78   0.528   1.769   1.474
   22SOL    HW2   79   0.648   1.878   1.465
   23SOL     OW   80   0.606   0.964   0.123
   23SOL    HW1   81   0.613   1.048   0.069
   23SOL    HW2   82   0.652   0.977   0.211
   24SOL     OW   83   1.594   0.114   1.480
   24SOL    HW1   84   1.576   0.181   1.408
   24SOL    HW2   85   1.591   0.160   1.569
   25SOL     OW   86   0.122   0.643   0.563
   25SOL    HW1   87   0.077   0.555   0.580
   25SOL    HW2   88   0.121   0.697   0.647
   26SOL     OW   89   1.842   1.767   0.359
   26SOL    HW1   90   1.896   1.738   0.439
   26SOL    HW2   91   1.872   1.857   0.330
   27SOL     OW   92   0.027   1.596   0.117
   27SOL    HW1   93   0.008   1.500   0.138
   27SOL    HW2   94  -0.006   1.654   0.192
   28SOL     OW   95   1.689   0.922   0.612
   28SOL    HW1   96   1.784   0.893   0.620
   28SOL    HW2   97   1.681   0.987   0.537
   29SOL     OW   98   1.641   1.108   0.432
   29SOL    HW1   99   1.727   1.110   0.380
   29SOL    HW2  100   1.655   1.155   0.520
   30SOL     OW  101   0.113   0.737   1.597
   30SOL    HW1  102   0.201   0.724   1.642
   30SOL    HW2  103   0.100   0.834   1.575
   31SOL     OW  104   0.613   1.365   0.726
   31SOL    HW1  105   0.564   1.278   0.735
   31SOL    HW2  106   0.590   1.408   0.639
   32SOL     OW  107   1.293   1.228   1.423
   32SOL    HW1  108   1.330   1.155   1.365
   32SOL    HW2  109   1.345   1.233   1.508
   33SOL     OW  110   0.809   0.004   0.502
   33SOL    HW1  111   0.849   0.095   0.493
   33SOL    HW2  112   0.709   0.012   0.508
   34SOL     OW  113   0.197   0.976   1.264
   34SOL    HW1  114   0.286   0.931   1.250
   34SOL    HW2  115   0.124   0.911   1.245
   35SOL     OW  116   1.525   0.999   0.190
   35SOL    HW1  117   1.462   0.923   0.203
   35SOL    HW2  118   1.573   1.017   0.276
   36SOL     OW  119   1.187   1.792   1.616
   36SOL    HW1  120   1.211   1.852   1.540
   36SOL    HW2  121   1.194   1.697   1.586
   37SOL     OW  122   0.317   0.251   1.801
   37SOL    HW1  123   0.388   0.322   1.807
   37SOL    HW2  124   0.229   0.290   1.829
   38SOL     OW  125   1.466   1.417   0.953
   38SOL    HW1  126   1.407   1.423   1.033
   38SOL    HW2  127   1.451   1.329   0.907
   39SOL     OW  128   1.667   1.714   0.572
   39SOL    HW1  129   1.626   1.691   0.484
   39SOL    HW2  130   1.649   1.640   0.637
   40SOL     OW  131   0.598   0.729   0.270
   40SOL    HW1  132   0.622   0.798   0.202
   40SOL    HW2  133   0.520   0.762   0.324
   41SOL     OW  134   1.281   0.345   0.944
   41SOL    HW1  135   1.195   0.295   0.931
   41SOL    HW2  136   1.343   0.291   1.000
   42SOL     OW  137   1.576   1.662   0.307
   42SOL    HW1  138   1.665   1.708   0.310
   42SOL    HW2  139   1.555   1.638   0.212
   43SOL     OW  140   0.807   0.605   1.465
   43SOL    HW1  141   0.760   0.602   1.554
   43SOL    HW2  142   0.756   0.550   1.399
   44SOL     OW  143   1.394   0.469   1.674
   44SOL    HW1  144   1.374   0.512   1.762
   44SOL    HW2  145   1.472   0.407   1.683
   45SOL     OW  146   0.973   0.890   1.572
   45SOL    HW1  147   1.019   0.806   1.543
   45SOL    HW2  148   0.917   0.924   1.497
   46SOL     OW  149   0.991   0.410   1.242
   46SOL    HW1  150   0.914   0.444   1.296
   46SOL    HW2  151   0.957   0.359   1.163
   47SOL     OW  152   1.041   0.701   0.429
   47SOL    HW1  153   1.067   0.697   0.525
   47SOL    HW2  154   0.956   0.650   0.415
   48SOL     OW  155   0.076   0.811   0.789
   48SOL    HW1  156   0.175   0.799   0.798
   48SOL    HW2  157   0.052   0.906   0.810
   49SOL     OW  158   0.130   1.821   1.571
   49SOL    HW1  159   0.120   1.806   1.670
   49SOL    HW2  160   0.044   1.857   1.535
   50SOL     OW  161   0.865   0.348   0.195
   50SOL    HW1  162   0.924   0.411   0.146
   50SOL    HW2  163   0.884   0.254   0.166
   51SOL     OW  164   1.719   0.585   1.831
   51SOL    HW1  165   1.693   0.674   1.795
   51SOL    HW2  166   1.717   0.517   1.758
   52SOL     OW  167   1.362   1.144   0.545
   52SOL    HW1  168   1.445   1.115   0.497
   52SOL    HW2  169   1.313   1.211   0.489
   53SOL     OW  170   0.550   0.196   0.885
   53SOL    HW1  171   0.545   0.191   0.985
   53SOL    HW2  172   0.552   0.292   0.856
   54SOL     OW  173   1.008   1.456   0.477
   54SOL    HW1  174   0.962   1.528   0.425
   54SOL    HW2  175   1.004   1.476   0.575
   55SOL     OW  176   0.351   1.801   0.853
   55SOL    HW1  177   0.401   1.715   0.859
   55SOL    HW2  178   0.416   1.878   0.850
   56SOL     OW  179   1.795   1.066   0.873
   56SOL    HW1  180   1.733   1.051   0.797
   56SOL    HW2  181   1.743   1.077   0.958
   57SOL     OW  182   0.321   0.943   0.242
   57SOL    HW1  183   0.403   0.982   0.200
   57SOL    HW2  184   0.294   0.861   0.193
   58SOL     OW  185   1.458   0.735   0.728
   58SOL    HW1  186   1.453   0.670   0.803
   58SOL    HW2  187   1.538   0.794   0.741
   59SOL     OW  188   0.461   1.266   1.727
   59SOL    HW1  189   0.411   1.267   1.641
   59SOL    HW2  190   0.398   1.248   1.803
   60SOL     OW  191   1.111   1.776   0.237
   60SOL    HW1  192   1.051   1.714   0.287
   60SOL    HW2  193   1.142   1.732   0.152
   61SOL     OW  194   0.202   0.285   1.498
   61SOL    HW1  195   0.122   0.345   1.485
   61SOL    HW2  196   0.192   0.236   1.584
   62SOL     OW  197   1.632   1.377   0.081
   62SOL    HW1  198   1.600   1.471   0.071
   62SOL    HW2  199   1.556   1.314   0.069
   63SOL     OW  200   0.464   1.743   0.323
   63SOL    HW1  201   0.497   1.782   0.409
   63SOL    HW2  202   0.540   1.736   0.258
   64SOL     OW  203   1.400   0.107   0.426
   64SOL    HW1  204   1.376   0.070   0.336
   64SOL    HW2  205   1.499   0.123   0.430
   65SOL     OW  206   0.249   1.785   1.241
   65SOL    HW1  207   0.306   1.720   1.291
   65SOL    HW2  208   0.233   1.752   1.148
   66SOL     OW  209   0.940   1.698   0.904
   66SOL    HW1  210   1.020   1.641   0.925
   66SOL    HW2  211   0.891   1.658   0.827
   67SOL     OW  212   0.382   0.700   0.480
   67SOL    HW1  213   0.427   0.610   0.477
   67SOL    HW2  214   0.288   0.689   0.513
   68SOL     OW  215   1.547   0.222   1.729
   68SOL    HW1  216   1.542   0.259   1.821
   68SOL    HW2  217   1.475   0.153   1.717
   69SOL     OW  218   0.614   0.122   0.117
   69SOL    HW1  219   0.712   0.100   0.124
   69SOL    HW2  220   0.583   0.105   0.024
   70SOL     OW  221   0.781   0.264   1.749
   70SOL    HW1  222   0.848   0.203   1.792
   70SOL    HW2  223   0.708   0.283   1.814
   71SOL     OW  224   0.888   1.514   1.195
   71SOL    HW1  225   0.865   1.489   1.101
   71SOL    HW2  226   0.949   1.445   1.234
   72SOL     OW  227   1.351   0.590   1.433
   72SOL    HW1  228   1.379   0.547   1.518
   72SOL    HW2  229   1.376   0.686   1.434
   73SOL     OW  230   0.803   1.402   0.924
   73SOL    HW1  231   0.893   1.416   0.882
   73SOL    HW2  232   0.732   1.404   0.853
   74SOL     OW  233   0.922   0.503   0.899
   74SOL    HW1  234   0.897   0.494   0.803
   74SOL    HW2  235   0.970   0.421   0.930
   75SOL     OW  236   0.539   0.064   0.512
   75SOL    HW1  237   0.458   0.065   0.570
   75SOL    HW2  238   0.542   0.147   0.457
   76SOL     OW  239   1.434   1.188   0.041
   76SOL    HW1  240   1.466   1.112   0.098
   76SOL    HW2  241   1.342   1.215   0.071
   77SOL     OW  242   0.297   0.035   0.171
   77SOL    HW1  243   0.346   0.119   0.150
   77SOL    HW2  244   0.359  -0.030   0.216
   78SOL     OW  245   0.935   0.236   0.480
   78SOL    HW1  246   0.887   0.277   0.402
   78SOL    HW2  247   1.034   0.234   0.461
   79SOL     OW  248   1.076   0.683   1.464
   79SOL    HW1  249   0.996   0.622   1.467
   79SOL    HW2  250   1.157   0.630   1.440
   80SOL     OW  251   1.227   1.570   0.793
   80SOL    HW1  252   1.248   1.644   0.728
   80SOL    HW2  253   1.295   1.570   0.866
   81SOL     OW  254   0.459   1.152   0.741
   81SOL    HW1  255   0.388   1.125   0.806
   81SOL    HW2  256   0.433   1.124   0.648
   82SOL     OW  257   1.271   1.797   0.591
   82SOL    HW1  258   1.315   1.861   0.527
   82SOL    HW2  259   1.221   1.849   0.661
   83SOL     OW  260   1.032   0.549   0.016
   83SOL    HW1  261   0.991   0.631  -0.023
   83SOL    HW2  262   1.096   0.575   0.089
   84SOL     OW  263   0.078   0.556   1.386
   84SOL    HW1  264   0.170   0.555   1.345
   84SOL    HW2  265   0.072   0.630   1.453
   85SOL     OW  266   0.561   0.222   1.147
   85SOL    HW1  267   0.599   0.138   1.184
   85SOL    HW2  268   0.473   0.241   1.191
   86SOL     OW  269   0.866   0.454   0.642
   86SOL    HW1  270   0.834   0.526   0.580
   86SOL    HW2  271   0.890   0.373   0.589
   87SOL     OW  272   1.017   0.039   0.753
   87SOL    HW1  273   0.945   0.044   0.684
   87SOL    HW2  274   0.993  -0.030   0.822
   88SOL     OW  275   1.429   1.173   0.867
   88SOL    HW1  276   1.374   1.089   0.860
   88SOL    HW2  277   1.455   1.202   0.775
   89SOL     OW  278   1.466   0.590   0.992
   89SOL    HW1  279   1.436   0.495   0.999
   89SOL    HW2  280   1.539   0.606   1.058
   90SOL     OW  281   1.857   0.833   0.377
   90SOL    HW1  282   1.899   0.769   0.441
   90SOL    HW2  283   1.819   0.782   0.299
   91SOL     OW  284   0.488   1.385   0.174
   91SOL    HW1  285   0.401   1.370   0.221
   91SOL    HW2  286   0.471   1.411   0.079
   92SOL     OW  287   1.664   1.280   0.657
   92SOL    HW1  288   1.763   1.288   0.671
   92SOL    HW2  289   1.619   1.364   0.688
   93SOL     OW  290   1.390   0.575   0.078
   93SOL    HW1  291   1.336   0.554   0.159
   93SOL    HW2  292   1.481   0.534   0.087
   94SOL     OW  293   0.527   0.256   0.328
   94SOL    HW1  294   0.554   0.197   0.253
   94SOL    HW2  295   0.527   0.351   0.297
   95SOL     OW  296   1.754   1.223   1.588
   95SOL    HW1  297   1.845   1.184   1.575
   95SOL    HW2  298   1.762   1.319   1.612
   96SOL     OW  299   1.111   1.195   1.100
   96SOL    HW1  300   1.071   1.239   1.181
   96SOL    HW2  301   1.070   1.232   1.017
   97SOL     OW  302   1.638   1.099   1.079
   97SOL    HW1  303   1.643   1.180   1.138
   97SOL    HW2  304   1.552   1.101   1.028
   98SOL     OW  305   0.915   0.089   1.402
   98SOL    HW1  306   0.940   0.069   1.307
   98SOL    HW2  307   0.987   0.145   1.444
   99SOL     OW  308   0.980   1.116   1.719
   99SOL    HW1  309   0.881   1.122   1.729
   99SOL    HW2  310   1.003   1.036   1.663
  100SOL     OW  311   0.705   1.050   0.368
  100SOL    HW1  312   0.691   1.057   0.467
  100SOL    HW2  313   0.789   0.999   0.350
  101SOL     OW  314   0.410   0.813   1.251
  101SOL    HW1  315   0.496   0.825   1.301
  101SOL    HW2  316   0.368   0.726   1.278
  102SOL     OW  317   1.274   0.386   1.262
  102SOL    HW1  318   1.295   0.460   1.326
  102SOL    HW2  319   1.185   0.403   1.219
  103SOL     OW  320   0.064   1.564   1.331
  103SOL    HW1  321   0.018   1.646   1.297
  103SOL    HW2  322   0.162   1.583   1.340
  104SOL     OW  323   0.367   1.100   0.501
  104SOL    HW1  324   0.360   1.183   0.445
  104SOL    HW2  325   0.371   1.020   0.441
  105SOL     OW  326   0.566   0.537   0.865
  105SOL    HW1  327   0.578   0.603   0.791
  105SOL    HW2  328   0.612   0.571   0.948
  106SOL     OW  329   1.252   1.348   0.388
  106SOL    HW1  330   1.302   1.425   0.428
  106SOL    HW2  331   1.157   1.350   0.420
  107SOL     OW  332   1.582   0.639   0.472
  107SOL    HW1  333   1.551   0.700   0.545
  107SOL    HW2  334   1.632   0.691   0.403
  108SOL     OW  335   0.354   1.510   1.329
  108SOL    HW1  336   0.333   1.466   1.242
  108SOL    HW2  337   0.451   1.536   1.332
  109SOL     OW  338   0.402   0.751   1.598
  109SOL    HW1  339   0.470   0.806   1.551
  109SOL    HW2  340   0.442   0.663   1.625
  110SOL     OW  341   1.587   0.779   1.670
  110SOL    HW1  342   1.495   0.817   1.665
  110SOL    HW2  343   1.647   0.826   1.605
  111SOL     OW  344   1.013   0.105   1.770
  111SOL    HW1  345   1.019   0.190   1.718
  111SOL    HW2  346   1.045   0.029   1.713
  112SOL     OW  347   0.504   0.050   1.740
  112SOL    HW1  348   0.462  -0.007   1.670
  112SOL    HW2  349   0.438   0.119   1.772
  113SOL     OW  350   0.573   0.870   1.029
  113SOL    HW1  351   0.617   0.959   1.020
  113SOL    HW2  352   0.510   0.870   1.106
  114SOL     OW  353   1.360   0.862   1.045
  114SOL    HW1  354   1.285   0.862   0.979
  114SOL    HW2  355   1.397   0.770   1.054
  115SOL     OW  356   1.209   0.525   0.275
  115SOL    HW1  357   1.222   0.441   0.329
  115SOL    HW2  358   1.180   0.599   0.335
  116SOL     OW  359   0.307   0.213   1.231
  116SOL    HW1  360   0.284   0.250   1.321
  116SOL    HW2  361   0.277   0.118   1.225
  117SOL     OW  362   0.037   1.310   1.282
  117SOL    HW1  363   0.090   1.261   1.350
  117SOL    HW2  364   0.059   1.408   1.287
  118SOL     OW  365   0.732   0.634   1.064
  118SOL    HW1  366   0.791   0.608   0.988
  118SOL    HW2  367   0.704   0.730   1.053
  119SOL     OW  368   1.728   0.935   1.854
  119SOL    HW1  369   1.682   0.928   1.765
  119SOL    HW2  370   1.666   0.979   1.920
  120SOL     OW  371   0.307   0.063   0.618
  120SOL    HW1  372   0.296   0.157   0.651
  120SOL    HW2  373   0.302   0.000   0.695
  121SOL     OW  374   1.622   0.367   0.374
  121SOL    HW1  375   1.624   0.291   0.438
  121SOL    HW2  376   1.574   0.444   0.414
  122SOL     OW  377   1.023   0.766   0.966
  122SOL    HW1  378   1.038   0.787   1.062
  122SOL    HW2  379   0.993   0.671   0.957
  123SOL     OW  380   0.980   1.573   1.700
  123SOL    HW1  381   0.960   1.617   1.612
  123SOL    HW2  382   1.019   1.482   1.684
  124SOL     OW  383   1.859   1.518   1.605
  124SOL    HW1  384   1.873   1.545   1.510
  124SOL    HW2  385   1.942   1.540   1.658
  125SOL     OW  386   0.350   0.898   1.804
  125SOL    HW1  387   0.426   0.942   1.852
  125SOL    HW2  388   0.385   0.851   1.722
  126SOL     OW  389   1.540   0.274   0.125
  126SOL    HW1  390   1.479   0.199   0.148
  126SOL    HW2  391   1.562   0.326   0.208
  127SOL     OW  392   1.303   0.838   0.042
  127SOL    HW1  393   1.337   0.745   0.057
  127SOL    HW2  394   1.321   0.865  -0.053
  128SOL     OW  395   1.068   1.333   0.849
  128SOL    HW1  396   1.075   1.249   0.794
  128SOL    HW2  397   1.130   1.402   0.813
  129SOL     OW  398   0.319   0.810   0.949
  129SOL    HW1  399   0.412   0.846   0.954
  129SOL    HW2  400   0.313   0.725   1.001
  130SOL     OW  401   0.339   0.509   1.006
  130SOL    HW1  402   0.287   0.426   0.989
  130SOL    HW2  403   0.416   0.514   0.942
  131SOL     OW  404   1.138   0.380   1.678
  131SOL    HW1  405   1.093   0.443   1.742
  131SOL    HW2  406   1.231   0.411   1.661
  132SOL     OW  407   1.160   0.207   1.477
  132SOL    HW1  408   1.160   0.271   1.554
  132SOL    HW2  409   1.188   0.255   1.394
  133SOL     OW  410   0.008   1.326   0.200
  133SOL    HW1  411  -0.085   1.347   0.169
  133SOL    HW2  412   0.018   1.227   0.213
  134SOL     OW  413   0.088   1.801   0.927
  134SOL    HW1  414   0.046   1.715   0.900
  134SOL    HW2  415   0.182   1.804   0.893
  135SOL     OW  416   0.504   1.568   0.910
  135SOL    HW1  417   0.570   1.642   0.919
  135SOL    HW2  418   0.548   1.489   0.868
  136SOL     OW  419   1.002   0.796   1.238
  136SOL    HW1  420   1.043   0.764   1.324
  136SOL    HW2  421   0.906   0.769   1.235
  137SOL     OW  422   0.040   0.544   1.114
  137SOL    HW1  423   0.125   0.511   1.073
  137SOL    HW2  424   0.053   0.559   1.212
  138SOL     OW  425   0.189   0.520   1.722
  138SOL    HW1  426   0.248   0.480   1.652
  138SOL    HW2  427   0.131   0.591   1.681
  139SOL     OW  428   1.369   0.950   1.660
  139SOL    HW1  429   1.408   1.039   1.680
  139SOL    HW2  430   1.379   0.930   1.563
  140SOL     OW  431   0.815   0.572   0.325
  140SOL    HW1  432   0.822   0.483   0.279
  140SOL    HW2  433   0.721   0.606   0.317
  141SOL     OW  434   1.657   0.604   1.206
  141SOL    HW1  435   1.619   0.535   1.268
  141SOL    HW2  436   1.739   0.568   1.162
  142SOL     OW  437   0.252   1.564   1.744
  142SOL    HW1  438   0.222   1.621   1.820
  142SOL    HW2  439   0.245   1.467   1.770
  143SOL     OW  440   0.671   0.464   1.269
  143SOL    HW1  441   0.637   0.375   1.239
  143SOL    HW2  442   0.697   0.518   1.189
  144SOL     OW  443   0.930   1.678   1.465
  144SOL    HW1  444   0.906   1.660   1.370
  144SOL    HW2  445   0.960   1.772   1.475
  145SOL     OW  446   0.473   0.500   0.191
  145SOL    HW1  447   0.534   0.580   0.195
  145SOL    HW2  448   0.378   0.531   0.198
  146SOL     OW  449   0.159   1.137   1.466
  146SOL    HW1  450   0.181   1.076   1.542
  146SOL    HW2  451   0.169   1.088   1.380
  147SOL     OW  452   1.347   1.059   1.234
  147SOL    HW1  453   1.371   0.996   1.160
  147SOL    HW2  454   1.257   1.099   1.216
  148SOL     OW  455   1.302   0.855   0.309
  148SOL    HW1  456   1.216   0.824   0.351
  148SOL    HW2  457   1.298   0.841   0.210
  149SOL     OW  458   1.759   1.747   1.154
  149SOL    HW1  459   1.820   1.777   1.081
  149SOL    HW2  460   1.721   1.658   1.132
  150SOL     OW  461   1.252   1.731   1.128
  150SOL    HW1  462   1.336   1.736   1.074
  150SOL    HW2  463   1.229   1.635   1.146
  151SOL     OW  464   0.083   1.258   1.022
  151SOL    HW1  465   0.078   1.257   1.122
  151SOL    HW2  466   0.000   1.217   0.984
  152SOL     OW  467   0.688   1.662   1.716
  152SOL    HW1  468   0.632   1.743   1.725
  152SOL    HW2  469   0.740   1.666   1.630
  153SOL     OW  470   0.903   0.086   0.133
  153SOL    HW1  471   0.954   0.087   0.047
  153SOL    HW2  472   0.959   0.044   0.204
  154SOL     OW  473   1.726   0.135   0.523
  154SOL    HW1  474   1.799   0.118   0.456
  154SOL    HW2  475   1.695   0.048   0.561
  155SOL     OW  476   1.388   1.573   0.477
  155SOL    HW1  477   1.455   1.585   0.403
  155SOL    HW2  478   1.348   1.662   0.500
  156SOL     OW  479   0.130   1.794   1.851
  156SOL    HW1  480   0.089   1.720   1.904
  156SOL    HW2  481   0.194   1.845   1.909
  157SOL     OW  482   1.280   0.927   0.672
  157SOL    HW1  483   1.340   0.846   0.674
  157SOL    HW2  484   1.320   0.996   0.612
  158SOL     OW  485   0.830   1.273   1.422
  158SOL    HW1  486   0.825   1.306   1.517
  158SOL    HW2  487   0.744   1.292   1.376
  159SOL     OW  488   0.672   1.616   0.154
  159SOL    HW1  489   0.681   1.626   0.055
  159SOL    HW2  490   0.632   1.527   0.175
  160SOL     OW  491   1.841   0.175   0.963
  160SOL    HW1  492   1.880   0.090   0.927
  160SOL    HW2  493   1.743   0.177   0.944
  161SOL     OW  494   0.263   0.326   0.720
  161SOL    HW1  495   0.184   0.377   0.686
  161SOL    HW2  496   0.254   0.311   0.818
  162SOL     OW  497   1.194   1.612   0.031
  162SOL    HW1  498   1.200   1.519   0.068
  162SOL    HW2  499   1.135   1.612  -0.049
  163SOL     OW  500   0.822   1.002   1.372
  163SOL    HW1  501   0.862   1.001   1.280
  163SOL    HW2  502   0.832   1.094   1.412
  164SOL     OW  503   0.916   0.910   0.291
  164SOL    HW1  504   0.979   0.948   0.223
  164SOL    HW2  505   0.956   0.827   0.330
  165SOL     OW  506   1.504   1.607   0.044
  165SOL    HW1  507   1.412   1.644   0.051
  165SOL    HW2  508   1.542   1.627  -0.046
  166SOL     OW  509   0.372   1.288   1.490
  166SOL    HW1  510   0.359   1.381   1.456
  166SOL    HW2  511   0.288   1.236   1.477
  167SOL     OW  512   1.039   1.098   0.696
  167SOL    HW1  513   0.969   1.051   0.750
  167SOL    HW2  514   1.098   1.030   0.653
  168SOL     OW  515   1.014   0.236   0.971
  168SOL    HW1  516   1.006   0.200   0.878
  168SOL    HW2  517   1.012   0.160   1.036
  169SOL     OW  518   0.590   1.487   0.491
  169SOL    HW1  519   0.632   1.429   0.421
  169SOL    HW2  520   0.546   1.566   0.447
  170SOL     OW  521   1.709   0.385   1.381
  170SOL    HW1  522   1.782   0.454   1.385
  170SOL    HW2  523   1.737   0.310   1.322
  171SOL     OW  524   0.255   1.348   0.290
  171SOL    HW1  525   0.159   1.349   0.263
  171SOL    HW2  526   0.267   1.401   0.374
  172SOL     OW  527   0.105   1.013   1.726
  172SOL    HW1  528   0.028   0.980   1.780
  172SOL    HW2  529   0.190   0.983   1.768
  173SOL     OW  530   0.672   0.203   1.489
  173SOL    HW1  531   0.762   0.187   1.449
  173SOL    HW2  532   0.680   0.208   1.588
  174SOL     OW  533   0.075   0.345   0.033
  174SOL    HW1  534  -0.017   0.317   0.004
  174SOL    HW2  535   0.106   0.422  -0.023
  175SOL     OW  536   1.440   0.856   1.398
  175SOL    HW1  537   1.383   0.908   1.335
  175SOL    HW2  538   1.536   0.868   1.374
  176SOL     OW  539   0.072   0.166   0.318
  176SOL    HW1  540   0.055   0.249   0.264
  176SOL    HW2  541   0.162   0.129   0.296
  177SOL     OW  542   1.183   1.335   0.119
  177SOL    HW1  543   1.084   1.324   0.121
  177SOL    HW2  544   1.217   1.350   0.212
  178SOL     OW  545   0.613   0.842   1.431
  178SOL    HW1  546   0.669   0.923   1.414
  178SOL    HW2  547   0.672   0.762   1.434
  179SOL     OW  548   1.493   1.767   0.959
  179SOL    HW1  549   1.526   1.831   0.890
  179SOL    HW2  550   1.559   1.761   1.034
  180SOL     OW  551   0.716   0.565   1.708
  180SOL    HW1  552   0.735   0.630   1.782
  180SOL    HW2  553   0.776   0.485   1.717
  181SOL     OW  554   0.390   1.741   1.560
  181SOL    HW1  555   0.299   1.782   1.558
  181SOL    HW2  556   0.383   1.647   1.592
  182SOL     OW  557   1.674   0.883   1.254
  182SOL    HW1  558   1.647   0.794   1.217
  182SOL    HW2  559   1.675   0.951   1.181
  183SOL     OW  560   1.225   0.325   0.449
  183SOL    HW1  561   1.290   0.251   0.438
  183SOL    HW2  562   1.245   0.375   0.533
  184SOL     OW  563   0.594   0.745   0.652
  184SOL    HW1  564   0.644   0.830   0.633
  184SOL    HW2  565   0.506   0.747   0.604
  185SOL     OW  566   1.777   0.342   1.642
  185SOL    HW1  567   1.760   0.373   1.548
  185SOL    HW2  568   1.693   0.305   1.680
  186SOL     OW  569   1.730   0.934   1.517
  186SOL    HW1  570   1.768   1.025   1.532
  186SOL    HW2  571   1.722   0.917   1.418
  187SOL     OW  572   0.859   1.374   0.016
  187SOL    HW1  573   0.813   1.389   0.104
  187SOL    HW2  574   0.903   1.459  -0.014
  188SOL     OW  575   0.661   1.790   0.953
  188SOL    HW1  576   0.615   1.878   0.940
  188SOL    HW2  577   0.760   1.802   0.946
  189SOL     OW  578   0.859   0.956   0.861
  189SOL    HW1  579   0.913   0.887   0.909
  189SOL    HW2  580   0.827   1.025   0.927
  190SOL     OW  581   1.083   0.984   0.087
  190SOL    HW1  582   1.060   1.037   0.005
  190SOL    HW2  583   1.164   0.928   0.068
  191SOL     OW  584   1.861   1.569   0.851
  191SOL    HW1  585   1.790   1.557   0.781
  191SOL    HW2  586   1.862   1.490   0.911
  192SOL     OW  587   0.221   1.314   1.844
  192SOL    HW1  588   0.156   1.241   1.823
  192SOL    HW2  589   0.225   1.328   1.942
  193SOL     OW  590   0.079   1.240   0.653
  193SOL    HW1  591   0.078   1.193   0.741
  193SOL    HW2  592   0.161   1.212   0.602
  194SOL     OW  593   0.672   1.391   1.624
  194SOL    HW1  594   0.594   1.341   1.662
  194SOL    HW2  595   0.669   1.486   1.655
  195SOL     OW  596   1.824   0.192   1.227
  195SOL    HW1  597   1.820   0.102   1.271
  195SOL    HW2  598   1.827   0.181   1.128
  196SOL     OW  599   0.428   0.424   0.520
  196SOL    HW1  600   0.458   0.352   0.458
  196SOL    HW2  601   0.389   0.384   0.603
  197SOL     OW  602   0.317   0.547   1.280
  197SOL    HW1  603   0.355   0.488   1.352
  197SOL    HW2  604   0.357   0.521   1.192
  198SOL     OW  605   0.812   1.586   0.687
  198SOL    HW1  606   0.844   1.596   0.593
  198SOL    HW2  607   0.733   1.524   0.689
  199SOL     OW  608   1.424   0.214   1.112
  199SOL    HW1  609   1.476   0.149   1.167
  199SOL    HW2  610   1.375   0.277   1.173
  200SOL     OW  611   1.001   0.034   1.154
  200SOL    HW1  612   0.938  -0.038   1.123
  200SOL    HW2  613   1.094  -0.002   1.154
  201SOL     OW  614   0.770   1.330   0.301
  201SOL    HW1  615   0.724   1.243   0.318
  201SOL    HW2  616   0.861   1.327   0.342
  202SOL     OW  617   0.618   1.567   1.284
  202SOL    HW1  618   0.613   1.649   1.341
  202SOL    HW2  619   0.707   1.564   1.239
  203SOL     OW  620   1.352   0.052   0.168
  203SOL    HW1  621   1.387   0.011   0.084
  203SOL    HW2  622   1.262   0.014   0.188
  204SOL     OW  623   1.300   0.453   0.691
  204SOL    HW1  624   1.241   0.533   0.695
  204SOL    HW2  625   1.315   0.418   0.784
  205SOL     OW  626   1.593   0.221   0.882
  205SOL    HW1  627   1.509   0.220   0.936
  205SOL    HW2  628   1.595   0.304   0.826
  206SOL     OW  629   0.039   1.077   0.300
  206SOL    HW1  630   0.138   1.066   0.291
  206SOL    HW2  631  -0.001   0.991   0.332
  207SOL     OW  632   0.875   1.646   0.337
  207SOL    HW1  633   0.798   1.611   0.283
  207SOL    HW2  634   0.843   1.717   0.399
  208SOL     OW  635   0.230   0.628   1.975
  208SOL    HW1  636   0.137   0.626   2.012
  208SOL    HW2  637   0.231   0.589   1.883
  209SOL     OW  638   0.225   0.275   2.858
  209SOL    HW1  639   0.260   0.258   2.950
  209SOL    HW2  640   0.137   0.230   2.846
  210SOL     OW  641   0.019   0.368   2.509
  210SOL    HW1  642  -0.063   0.411   2.548
  210SOL    HW2  643  -0.009   0.295   2.446
  211SOL     OW  644   1.555   1.511   2.565
  211SOL    HW1  645   1.498   1.495   2.646
  211SOL    HW2  646   1.496   1.521   2.485
  212SOL     OW  647   1.135   0.703   2.579
  212SOL    HW1  648   1.192   0.781   2.554
  212SOL    HW2  649   1.075   0.729   2.655
  213SOL     OW  650   1.755   0.607   2.093
  213SOL    HW1  651   1.743   0.594   1.994
  213SOL    HW2  652   1.725   0.526   2.142
  214SOL     OW  653   0.768   1.144   2.885
  214SOL    HW1  654   0.690   1.161   2.945
  214SOL    HW2  655   0.802   1.231   2.849
  215SOL     OW  656   0.685   1.012   2.527
  215SOL    HW1  657   0.754   0.996   2.597
  215SOL    HW2  658   0.612   1.069   2.565
  216SOL     OW  659   1.603   0.447   2.599
  216SOL    HW1  660   1.529   0.493   2.549
  216SOL    HW2  661   1.654   0.515   2.652
  217SOL     OW  662   0.231   1.713   2.345
  217SOL    HW1  663   0.265   1.790   2.399
  217SOL    HW2  664   0.275   1.713   2.255
  218SOL     OW  665   0.230   1.434   2.400
  218SOL    HW1  666   0.204   1.530   2.400
  218SOL    HW2  667   0.159   1.380   2.445
  219SOL     OW  668   0.240   1.091   2.748
  219SOL    HW1  669   0.254   1.007   2.800
  219SOL    HW2  670   0.185   1.155   2.803
  220SOL     OW  671   0.606   0.964   1.985
  220SOL    HW1  672   0.613   1.048   1.931
  220SOL    HW2  673   0.652   0.977   2.073
  221SOL     OW  674   0.122   0.643   2.425
  221SOL    HW1  675   0.077   0.555   2.442
  221SOL    HW2  676   0.121   0.697   2.509
  222SOL     OW  677   1.842   1.767   2.221
  222SOL    HW1  678   1.896   1.738   2.301
  222SOL    HW2  679   1.872   1.857   2.192
  223SOL     OW  680   0.027   1.596   1.979
  223SOL    HW1  681   0.008   1.500   2.000
  223SOL    HW2  682  -0.006   1.654   2.054
  224SOL     OW  683   1.689   0.922   2.474
  224SOL    HW1  684   1.784   0.893   2.482
  224SOL    HW2  685   1.681   0.987   2.399
  225SOL     OW  686   1.641   1.108   2.294
  225SOL    HW1  687   1.727   1.110   2.242
  225SOL    HW2  688   1.655   1.155   2.382
  226SOL     OW  689   0.613   1.365   2.588
  226SOL    HW1  690   0.564   1.278   2.597
  226SOL    HW2  691   0.590   1.408   2.501
  227SOL     OW  692   0.809   0.004   2.364
  227SOL    HW1  693   0.849   0.095   2.355
  227SOL    HW2  694   0.709   0.012   2.370
  228SOL     OW  695   1.525   0.999   2.052
  228SOL    HW1  696   1.462   0.923   2.065
  228SOL    HW2  697   1.573   1.017   2.138
  229SOL     OW  698   1.466   1.417   2.815
  229SOL    HW1  699   1.407   1.423   2.895
  229SOL    HW2  700   1.451   1.329   2.769
  230SOL     OW  701   1.667   1.714   2.434
  230SOL    HW1  702   1.626   1.691   2.346
  230SOL    HW2  703   1.649   1.640   2.499
  231SOL     OW  704   0.598   0.729   2.132
  231SOL    HW1  705   0.622   0.798   2.064
  231SOL    HW2  706   0.520   0.762   2.186
  232SOL     OW  707   1.281   0.345   2.806
  232SOL    HW1  708   1.195   0.295   2.793
  232SOL    HW2  709   1.343   0.291   2.862
  233SOL     OW  710   1.576   1.662   2.169
  233SOL    HW1  711   1.665   1.708   2.172
  233SOL    HW2  712   1.555   1.638   2.074
  234SOL     OW  713   1.041   0.701   2.291
  234SOL    HW1  714   1.067   0.697   2.387
  234SOL    HW2  715   0.956   0.650   2.277
  235SOL     OW  716   0.076   0.811   2.651
  235SOL    HW1  717   0.175   0.799   2.660
  235SOL    HW2  718   0.052   0.906   2.672
  236SOL     OW  719   0.865   0.348   2.057
  236SOL    HW1  720   0.924   0.411   2.008
  236SOL    HW2  721   0.884   0.254   2.028
  237SOL     OW  722   1.362   1.144   2.407
  237SOL    HW1  723   1.445   1.115   2.359
  237SOL    HW2  724   1.313   1.211   2.351
  238SOL     OW  725   1.008   1.456   2.339
  238SOL    HW1  726   0.962   1.528   2.287
  238SOL    HW2  727   1.004   1.476   2.437
  239SOL     OW  728   0.351   1.801   2.715
  239SOL    HW1  729   0.401   1.715   2.721
  239SOL    HW2  730   0.416   1.878   2.712
  240SOL     OW  731   1.795   1.066   2.735
  240SOL    HW1  732   1.733   1.051   2.659
  240SOL    HW2  733   1.743   1.077   2.820
  241SOL     OW  734   0.321   0.943   2.104
  241SOL    HW1  735   0.403   0.982   2.062
  241SOL    HW2  736   0.294   0.861   2.055
  242SOL     OW  737   1.458   0.735   2.590
  242SOL    HW1  738   1.453   0.670   2.665
  242SOL    HW2  739   1.538   0.794   2.603
  243SOL     OW  740   1.111   1.776   2.099
  243SOL    HW1  741   1.051   1.714   2.149
  243SOL    HW2  742   1.142   1.732   2.014
  244SOL     OW  743   0.464   1.743   2.185
  244SOL    HW1  744   0.497   1.782   2.271
  244SOL    HW2  745   0.540   1.736   2.120
  245SOL     OW  746   1.400   0.107   2.288
  245SOL    HW1  747   1.376   0.070   2.198
  245SOL    HW2  748   1.499   0.123   2.292
  246SOL     OW  749   0.249   1.785   3.103
  246SOL    HW1  750   0.306   1.720   3.153
  246SOL    HW2  751   0.233   1.752   3.010
  247SOL     OW  752   0.382   0.700   2.342
  247SOL    HW1  753   0.427   0.610   2.339
  247SOL    HW2  754   0.288   0.689   2.375
  248SOL     OW  755   0.614   0.122   1.979
  248SOL    HW1  756   0.712   0.100   1.986
  248SOL    HW2  757   0.583   0.105   1.886
  249SOL     OW  758   0.922   0.503   2.761
  249SOL    HW1  759   0.897   0.494   2.665
  249SOL    HW2  760   0.970   0.421   2.792
  250SOL     OW  761   0.539   0.064   2.374
  250SOL    HW1  762   0.458   0.065   2.432
  250SOL    HW2  763   0.542   0.147   2.319
  251SOL     OW  764   1.434   1.188   1.903
  251SOL    HW1  765   1.466   1.112   1.960
  251SOL    HW2  766   1.342   1.215   1.933
  252SOL     OW  767   0.297   0.035   2.033
  252SOL    HW1  768   0.346   0.119   2.012
  252SOL    HW2  769   0.359  -0.030   2.078
  253SOL     OW  770   0.935   0.236   2.342
  253SOL    HW1  771   0.887   0.277   2.264
  253SOL    HW2  772   1.034   0.234   2.323
  254SOL     OW  773   1.227   1.570   2.655
  254SOL    HW1  774   1.248   1.644   2.590
  254SOL    HW2  775   1.295   1.570   2.728
  255SOL     OW  776   0.459   1.152   2.603
  255SOL    HW1  777   0.388   1.125   2.668
  255SOL    HW2  778   0.433   1.124   2.510
  256SOL     OW  779   1.271   1.797   2.453
  256SOL    HW1  780   1.315   1.861   2.389
  256SOL    HW2  781   1.221   1.849   2.523
  257SOL     OW  782   1.032   0.549   1.878
  257SOL    HW1  783   0.991   0.631   1.839
  257SOL    HW2  784   1.096   0.575   1.951
  258SOL     OW  785   0.866   0.454   2.504
  258SOL    HW1  786   0.834   0.526   2.442
  258SOL    HW2  787   0.890   0.373   2.451
  259SOL     OW  788   1.017   0.039   2.615
  259SOL    HW1  789   0.945   0.044   2.546
  259SOL    HW2  790   0.993  -0.030   2.684
  260SOL     OW  791   1.429   1.173   2.729
  260SOL    HW1  792   1.374   1.089   2.722
  260SOL    HW2  793   1.455   1.202   2.637
  261SOL     OW  794   1.857   0.833   2.239
  261SOL    HW1  795   1.899   0.769   2.303
  261SOL    HW2  796   1.819   0.782   2.161
  262SOL     OW  797   0.488   1.385   2.036
  262SOL    HW1  798   0.401   1.370   2.083
  262SOL    HW2  799   0.471   1.411   1.941
  263SOL     OW  800   1.664   1.280   2.519
  263SOL    HW1  801   1.763   1.288   2.533
  263SOL    HW2  802   1.619   1.364   2.550
  264SOL     OW  803   1.390   0.575   1.940
  264SOL    HW1  804   1.336   0.554   2.021
  264SOL    HW2  805   1.481   0.534   1.949
  265SOL     OW  806   0.527   0.256   2.190
  265SOL    HW1  807   0.554   0.197   2.115
  265SOL    HW2  808   0.527   0.351   2.159
  266SOL     OW  809   0.705   1.050   2.230
  266SOL    HW1  810   0.691   1.057   2.329
  266SOL    HW2  811   0.789   0.999   2.212
  267SOL     OW  812   0.367   1.100   2.363
  267SOL    HW1  813   0.360   1.183   2.307
  267SOL    HW2  814   0.371   1.020   2.303
  268SOL     OW  815   0.566   0.537   2.727
  268SOL    HW1  816   0.578   0.603   2.653
  268SOL    HW2  817   0.612   0.571   2.810
  269SOL     OW  818   1.252   1.348   2.250
  269SOL    HW1  819   1.302   1.425   2.290
  269SOL    HW2  820   1.157   1.350   2.282
  270SOL     OW  821   1.582   0.639   2.334
  270SOL    HW1  822   1.551   0.700   2.407
  270SOL    HW2  823   1.632   0.691   2.265
  271SOL     OW  824   1.209   0.525   2.137
  271SOL    HW1  825   1.222   0.441   2.191
  271SOL    HW2  826   1.180   0.599   2.197
  272SOL     OW  827   0.732   0.634   2.926
  272SOL    HW1  828   0.791   0.608   2.850
  272SOL    HW2  829   0.704   0.730   2.915
  273SOL     OW  830   0.307   0.063   2.480
  273SOL    HW1  831   0.296   0.157   2.513
  273SOL    HW2  832   0.302   0.000   2.557
  274SOL     OW  833   1.622   0.367   2.236
  274SOL    HW1  834   1.624   0.291   2.300
  274SOL    HW2  835   1.574   0.444   2.276
  275SOL     OW  836   1.540   0.274   1.987
  275SOL    HW1  837   1.479   0.199   2.010
  275SOL    HW2  838   1.562   0.326   2.070
  276SOL     OW  839   1.303   0.838   1.904
  276SOL    HW1  840   1.337   0.745   1.919
  276SOL    HW2  841   1.321   0.865   1.809
  277SOL     OW  842   1.068   1.333   2.711
  277SOL    HW1  843   1.075   1.249   2.656
  277SOL    HW2  844   1.130   1.402   2.675
  278SOL     OW  845   0.319   0.810   2.811
  278SOL    HW1  846   0.412   0.846   2.816
  278SOL    HW2  847   0.313   0.725   2.863
  279SOL     OW  848   0.008   1.326   2.062
  279SOL    HW1  849  -0.085   1.347   2.031
  279SOL    HW2  850   0.018   1.227   2.075
  280SOL     OW  851   0.088   1.801   2.789
  280SOL    HW1  852   0.046   1.715   2.762
  280SOL    HW2  853   0.182   1.804   2.755
  281SOL     OW  854   0.504   1.568   2.772
  281SOL    HW1  855   0.570   1.642   2.781
  281SOL    HW2  856   0.548   1.489   2.730
  282SOL     OW  857   0.815   0.572   2.187
  282SOL    HW1  858   0.822   0.483   2.141
  282SOL    HW2  859   0.721   0.606   2.179
  283SOL     OW  860   0.671   0.464   3.131
  283SOL    HW1  861   0.637   0.375   3.101
  283SOL    HW2  862   0.697   0.518   3.051
  284SOL     OW  863   0.473   0.500   2.053
  284SOL    HW1  864   0.534   0.580   2.057
  284SOL    HW2  865   0.378   0.531   2.060
  285SOL     OW  866   1.347   1.059   3.096
  285SOL    HW1  867   1.371   0.996   3.022
  285SOL    HW2  868   1.257   1.099   3.078
  286SOL     OW  869   1.302   0.855   2.171
  286SOL    HW1  870   1.216   0.824   2.213
  286SOL    HW2  871   1.298   0.841   2.072
  287SOL     OW  872   1.759   1.747   3.016
  287SOL    HW1  873   1.820   1.777   2.943
  287SOL    HW2  874   1.721   1.658   2.994
  288SOL     OW  875   1.726   0.135   2.385
  288SOL    HW1  876   1.799   0.118   2.318
  288SOL    HW2  877   1.695   0.048   2.423
  289SOL     OW  878   1.388   1.573   2.339
  289SOL    HW1  879   1.455   1.585   2.265
  289SOL    HW2  880   1.348   1.662   2.362
  290SOL     OW  881   1.280   0.927   2.534
  290SOL    HW1  882   1.340   0.846   2.536
  290SOL    HW2  883   1.320   0.996   2.474
  291SOL     OW  884   0.672   1.616   2.016
  291SOL    HW1  885   0.681   1.626   1.917
  291SOL    HW2  886   0.632   1.527   2.037
  292SOL     OW  887   1.841   0.175   2.825
  292SOL    HW1  888   1.880   0.090   2.789
  292SOL    HW2  889   1.743   0.177   2.806
  293SOL     OW  890   0.263   0.326   2.582
  293SOL    HW1  891   0.184   0.377   2.548
  293SOL    HW2  892   0.254   0.311   2.680
  294SOL     OW  893   1.194   1.612   1.893
  294SOL    HW1  894   1.200   1.519   1.930
  294SOL    HW2  895   1.135   1.612   1.813
  295SOL     OW  896   0.916   0.910   2.153
  295SOL    HW1  897   0.979   0.948   2.085
  295SOL    HW2  898   0.956   0.827   2.192
  296SOL     OW  899   1.614   1.292   3.151
  296SOL    HW1  900   1.674   1.295   3.231
  296SOL    HW2  901   1.539   1.356   3.164
  297SOL     OW  902   1.039   1.098   2.558
  297SOL    HW1  903   0.969   1.051   2.612
  297SOL    HW2  904   1.098   1.030   2.515
  298SOL     OW  905   0.590   1.487   2.353
  298SOL    HW1  906   0.632   1.429   2.283
  298SOL    HW2  907   0.546   1.566   2.309
  299SOL     OW  908   0.255   1.348   2.152
  299SOL    HW1  909   0.159   1.349   2.125
  299SOL    HW2  910   0.267   1.401   2.236
  300SOL     OW  911   0.075   0.345   1.895
  300SOL    HW1  912  -0.017   0.317   1.866
  300SOL    HW2  913   0.106   0.422   1.839
  301SOL     OW  914   0.072   0.166   2.180
  301SOL    HW1  915   0.055   0.249   2.126
  301SOL    HW2  916   0.162   0.129   2.158
  302SOL     OW  917   1.183   1.335   1.981
  302SOL    HW1  918   1.084   1.324   1.983
  302SOL    HW2  919   1.217   1.350   2.074
  303SOL     OW  920   1.674   0.883   3.116
  303SOL    HW1  921   1.647   0.794   3.079
  303SOL    HW2  922   1.675   0.951   3.043
  304SOL     OW  923   1.225   0.325   2.311
  304SOL    HW1  924   1.290   0.251   2.300
  304SOL    HW2  925   1.245   0.375   2.395
  305SOL     OW  926   0.594   0.745   2.514
  305SOL    HW1  927   0.644   0.830   2.495
  305SOL    HW2  928   0.506   0.747   2.466
  306SOL     OW  929   0.859   1.374   1.878
  306SOL    HW1  930   0.813   1.389   1.966
  306SOL    HW2  931   0.903   1.459   1.848
  307SOL     OW  932   0.661   1.790   2.815
  307SOL    HW1  933   0.615   1.878   2.802
  307SOL    HW2  934   0.760   1.802   2.808
  308SOL     OW  935   0.859   0.956   2.723
  308SOL    HW1  936   0.913   0.887   2.771
  308SOL    HW2  937   0.827   1.025   2.789
  309SOL     OW  938   1.083   0.984   1.949
  309SOL    HW1  939   1.060   1.037   1.867
  309SOL    HW2  940   1.164   0.928   1.930
  310SOL     OW  941   1.861   1.569   2.713
  310SOL    HW1  942   1.790   1.557   2.643
  310SOL    HW2  943   1.862   1.490   2.773
  311SOL     OW  944   0.079   1.240   2.515
  311SOL    HW1  945   0.078   1.193   2.603
  311SOL    HW2  946   0.161   1.212   2.464
  312SOL     OW  947   1.824   0.192   3.089
  312SOL    HW1  948   1.820   0.102   3.133
  312SOL    HW2  949   1.827   0.181   2.990
  313SOL     OW  950   0.428   0.424   2.382
  313SOL    HW1  951   0.458   0.352   2.320
  313SOL    HW2  952   0.389   0.384   2.465
  314SOL     OW  953   0.812   1.586   2.549
  314SOL    HW1  954   0.844   1.596   2.455
  314SOL    HW2  955   0.733   1.524   2.551
  315SOL     OW  956   0.770   1.330   2.163
  315SOL    HW1  957   0.724   1.243   2.180
  315SOL    HW2  958   0.861   1.327   2.204
  316SOL     OW  959   1.352   0.052   2.030
  316SOL    HW1  960   1.387   0.011   1.946
  316SOL    HW2  961   1.262   0.014   2.050
  317SOL     OW  962   1.300   0.453   2.553
  317SOL    HW1  963   1.241   0.533   2.557
  317SOL    HW2  964   1.315   0.418   2.646
  318SOL     OW  965   1.593   0.221   2.744
  318SOL    HW1  966   1.509   0.220   2.798
  318SOL    HW2  967   1.595   0.304   2.688
  319SOL     OW  968   0.039   1.077   2.162
  319SOL    HW1  969   0.138   1.066   2.153
  319SOL    HW2  970  -0.001   0.991   2.194
  320SOL     OW  971   0.875   1.646   2.199
  320SOL    HW1  972   0.798   1.611   2.145
  320SOL    HW2  973   0.843   1.717   2.261
  321SOL     OW  974   0.230   2.490   0.113
  321SOL    HW1  975   0.137   2.488   0.150
  321SOL    HW2  976   0.231   2.451   0.021
  322SOL     OW  977   0.225   2.137   0.996
  322SOL    HW1  978   0.260   2.120   1.088
  322SOL    HW2  979   0.137   2.092   0.984
  323SOL     OW  980   0.019   2.230   0.647
  323SOL    HW1  981  -0.063   2.273   0.686
  323SOL    HW2  982  -0.009   2.157   0.584
  324SOL     OW  983   1.135   2.565   0.717
  324SOL    HW1  984   1.192   2.643   0.692
  324SOL    HW2  985   1.075   2.591   0.793
  325SOL     OW  986   1.755   2.469   0.231
  325SOL    HW1  987   1.743   2.456   0.132
  325SOL    HW2  988   1.725   2.388   0.280
  326SOL     OW  989   0.850   2.660   1.823
  326SOL    HW1  990   0.846   2.736   1.888
  326SOL    HW2  991   0.872   2.696   1.732
  327SOL     OW  992   0.685   2.874   0.665
  327SOL    HW1  993   0.754   2.858   0.735
  327SOL    HW2  994   0.612   2.931   0.703
  328SOL     OW  995   0.438   2.254   1.499
  328SOL    HW1  996   0.520   2.198   1.508
  328SOL    HW2  997   0.357   2.196   1.503
  329SOL     OW  998   1.603   2.309   0.737
  329SOL    HW1  999   1.529   2.355   0.687
  329SOL    HW2 1000   1.654   2.377   0.790
  330SOL     OW 1001   1.594   1.976   1.480
  330SOL    HW1 1002   1.576   2.043   1.408
  330SOL    HW2 1003   1.591   2.022   1.569
  331SOL     OW 1004   0.122   2.505   0.563
  331SOL    HW1 1005   0.077   2.417   0.580
  331SOL    HW2 1006   0.121   2.559   0.647
  332SOL     OW 1007   0.113   2.599   1.597
  332SOL    HW1 1008   0.201   2.586   1.642
  332SOL    HW2 1009   0.100   2.696   1.575
  333SOL     OW 1010   0.809   1.866   0.502
  333SOL    HW1 1011   0.849   1.957   0.493
  333SOL    HW2 1012   0.709   1.874   0.508
  334SOL     OW 1013   0.197   2.838   1.264
  334SOL    HW1 1014   0.286   2.793   1.250
  334SOL    HW2 1015   0.124   2.773   1.245
  335SOL     OW 1016   1.525   2.861   0.190
  335SOL    HW1 1017   1.462   2.785   0.203
  335SOL    HW2 1018   1.573   2.879   0.276
  336SOL     OW 1019   0.317   2.113   1.801
  336SOL    HW1 1020   0.388   2.184   1.807
  336SOL    HW2 1021   0.229   2.152   1.829
  337SOL     OW 1022   0.598   2.591   0.270
  337SOL    HW1 1023   0.622   2.660   0.202
  337SOL    HW2 1024   0.520   2.624   0.324
  338SOL     OW 1025   1.281   2.207   0.944
  338SOL    HW1 1026   1.195   2.157   0.931
  338SOL    HW2 1027   1.343   2.153   1.000
  339SOL     OW 1028   0.807   2.467   1.465
  339SOL    HW1 1029   0.760   2.464   1.554
  339SOL    HW2 1030   0.756   2.412   1.399
  340SOL     OW 1031   1.394   2.331   1.674
  340SOL    HW1 1032   1.374   2.374   1.762
  340SOL    HW2 1033   1.472   2.269   1.683
  341SOL     OW 1034   0.973   2.752   1.572
  341SOL    HW1 1035   1.019   2.668   1.543
  341SOL    HW2 1036   0.917   2.786   1.497
  342SOL     OW 1037   0.991   2.272   1.242
  342SOL    HW1 1038   0.914   2.306   1.296
  342SOL    HW2 1039   0.957   2.221   1.163
  343SOL     OW 1040   1.041   2.563   0.429
  343SOL    HW1 1041   1.067   2.559   0.525
  343SOL    HW2 1042   0.956   2.512   0.415
  344SOL     OW 1043   0.076   2.673   0.789
  344SOL    HW1 1044   0.175   2.661   0.798
  344SOL    HW2 1045   0.052   2.768   0.810
  345SOL     OW 1046   0.865   2.210   0.195
  345SOL    HW1 1047   0.924   2.273   0.146
  345SOL    HW2 1048   0.884   2.116   0.166
  346SOL     OW 1049   1.719   2.447   1.831
  346SOL    HW1 1050   1.693   2.536   1.795
  346SOL    HW2 1051   1.717   2.379   1.758
  347SOL     OW 1052   0.550   2.058   0.885
  347SOL    HW1 1053   0.545   2.053   0.985
  347SOL    HW2 1054   0.552   2.154   0.856
  348SOL     OW 1055   1.458   2.597   0.728
  348SOL    HW1 1056   1.453   2.532   0.803
  348SOL    HW2 1057   1.538   2.656   0.741
  349SOL     OW 1058   0.202   2.147   1.498
  349SOL    HW1 1059   0.122   2.207   1.485
  349SOL    HW2 1060   0.192   2.098   1.584
  350SOL     OW 1061   1.400   1.969   0.426
  350SOL    HW1 1062   1.376   1.932   0.336
  350SOL    HW2 1063   1.499   1.985   0.430
  351SOL     OW 1064   0.382   2.562   0.480
  351SOL    HW1 1065   0.427   2.472   0.477
  351SOL    HW2 1066   0.288   2.551   0.513
  352SOL     OW 1067   1.547   2.084   1.729
  352SOL    HW1 1068   1.542   2.121   1.821
  352SOL    HW2 1069   1.475   2.015   1.717
  353SOL     OW 1070   0.614   1.984   0.117
  353SOL    HW1 1071   0.712   1.962   0.124
  353SOL    HW2 1072   0.583   1.967   0.024
  354SOL     OW 1073   0.781   2.126   1.749
  354SOL    HW1 1074   0.848   2.065   1.792
  354SOL    HW2 1075   0.708   2.145   1.814
  355SOL     OW 1076   1.351   2.452   1.433
  355SOL    HW1 1077   1.379   2.409   1.518
  355SOL    HW2 1078   1.376   2.548   1.434
  356SOL     OW 1079   0.922   2.365   0.899
  356SOL    HW1 1080   0.897   2.356   0.803
  356SOL    HW2 1081   0.970   2.283   0.930
  357SOL     OW 1082   0.539   1.926   0.512
  357SOL    HW1 1083   0.458   1.927   0.570
  357SOL    HW2 1084   0.542   2.009   0.457
  358SOL     OW 1085   0.935   2.098   0.480
  358SOL    HW1 1086   0.887   2.139   0.402
  358SOL    HW2 1087   1.034   2.096   0.461
  359SOL     OW 1088   1.076   2.545   1.464
  359SOL    HW1 1089   0.996   2.484   1.467
  359SOL    HW2 1090   1.157   2.492   1.440
  360SOL     OW 1091   1.032   2.411   0.016
  360SOL    HW1 1092   0.991   2.493  -0.023
  360SOL    HW2 1093   1.096   2.437   0.089
  361SOL     OW 1094   0.078   2.418   1.386
  361SOL    HW1 1095   0.170   2.417   1.345
  361SOL    HW2 1096   0.072   2.492   1.453
  362SOL     OW 1097   0.561   2.084   1.147
  362SOL    HW1 1098   0.599   2.000   1.184
  362SOL    HW2 1099   0.473   2.103   1.191
  363SOL     OW 1100   0.866   2.316   0.642
  363SOL    HW1 1101   0.834   2.388   0.580
  363SOL    HW2 1102   0.890   2.235   0.589
  364SOL     OW 1103   1.017   1.901   0.753
  364SOL    HW1 1104   0.945   1.906   0.684
  364SOL    HW2 1105   0.993   1.832   0.822
  365SOL     OW 1106   1.466   2.452   0.992
  365SOL    HW1 1107   1.436   2.357   0.999
  365SOL    HW2 1108   1.539   2.468   1.058
  366SOL     OW 1109   1.857   2.695   0.377
  366SOL    HW1 1110   1.899   2.631   0.441
  366SOL    HW2 1111   1.819   2.644   0.299
  367SOL     OW 1112   1.390   2.437   0.078
  367SOL    HW1 1113   1.336   2.416   0.159
  367SOL    HW2 1114   1.481   2.396   0.087
  368SOL     OW 1115   0.527   2.118   0.328
  368SOL    HW1 1116   0.554   2.059   0.253
  368SOL    HW2 1117   0.527   2.213   0.297
  369SOL     OW 1118   1.638   2.961   1.079
  369SOL    HW1 1119   1.643   3.042   1.138
  369SOL    HW2 1120   1.552   2.963   1.028
  370SOL     OW 1121   0.915   1.951   1.402
  370SOL    HW1 1122   0.940   1.931   1.307
  370SOL    HW2 1123   0.987   2.007   1.444
  371SOL     OW 1124   0.410   2.675   1.251
  371SOL    HW1 1125   0.496   2.687   1.301
  371SOL    HW2 1126   0.368   2.588   1.278
  372SOL     OW 1127   1.274   2.248   1.262
  372SOL    HW1 1128   1.295   2.322   1.326
  372SOL    HW2 1129   1.185   2.265   1.219
  373SOL     OW 1130   0.566   2.399   0.865
  373SOL    HW1 1131   0.578   2.465   0.791
  373SOL    HW2 1132   0.612   2.433   0.948
  374SOL     OW 1133   1.582   2.501   0.472
  374SOL    HW1 1134   1.551   2.562   0.545
  374SOL    HW2 1135   1.632   2.553   0.403
  375SOL     OW 1136   0.402   2.613   1.598
  375SOL    HW1 1137   0.470   2.668   1.551
  375SOL    HW2 1138   0.442   2.525   1.625
  376SOL     OW 1139   1.587   2.641   1.670
  376SOL    HW1 1140   1.495   2.679   1.665
  376SOL    HW2 1141   1.647   2.688   1.605
  377SOL     OW 1142   1.013   1.967   1.770
  377SOL    HW1 1143   1.019   2.052   1.718
  377SOL    HW2 1144   1.045   1.891   1.713
  378SOL     OW 1145   0.504   1.912   1.740
  378SOL    HW1 1146   0.462   1.855   1.670
  378SOL    HW2 1147   0.438   1.981   1.772
  379SOL     OW 1148   0.573   2.732   1.029
  379SOL    HW1 1149   0.617   2.821   1.020
  379SOL    HW2 1150   0.510   2.732   1.106
  380SOL     OW 1151   1.360   2.724   1.045
  380SOL    HW1 1152   1.285   2.724   0.979
  380SOL    HW2 1153   1.397   2.632   1.054
  381SOL     OW 1154   1.209   2.387   0.275
  381SOL    HW1 1155   1.222   2.303   0.329
  381SOL    HW2 1156   1.180   2.461   0.335
  382SOL     OW 1157   0.307   2.075   1.231
  382SOL    HW1 1158   0.284   2.112   1.321
  382SOL    HW2 1159   0.277   1.980   1.225
  383SOL     OW 1160   0.037   3.172   1.282
  383SOL    HW1 1161   0.090   3.123   1.350
  383SOL    HW2 1162   0.059   3.270   1.287
  384SOL     OW 1163   0.732   2.496   1.064
  384SOL    HW1 1164   0.791   2.470   0.988
  384SOL    HW2 1165   0.704   2.592   1.053
  385SOL     OW 1166   1.728   2.797   1.854
  385SOL    HW1 1167   1.682   2.790   1.765
  385SOL    HW2 1168   1.666   2.841   1.920
  386SOL     OW 1169   0.307   1.925   0.618
  386SOL    HW1 1170   0.296   2.019   0.651
  386SOL    HW2 1171   0.302   1.862   0.695
  387SOL     OW 1172   1.622   2.229   0.374
  387SOL    HW1 1173   1.624   2.153   0.438
  387SOL    HW2 1174   1.574   2.306   0.414
  388SOL     OW 1175   1.023   2.628   0.966
  388SOL    HW1 1176   1.038   2.649   1.062
  388SOL    HW2 1177   0.993   2.533   0.957
  389SOL     OW 1178   0.350   2.760   1.804
  389SOL    HW1 1179   0.426   2.804   1.852
  389SOL    HW2 1180   0.385   2.713   1.722
  390SOL     OW 1181   1.540   2.136   0.125
  390SOL    HW1 1182   1.479   2.061   0.148
  390SOL    HW2 1183   1.562   2.188   0.208
  391SOL     OW 1184   1.303   2.700   0.042
  391SOL    HW1 1185   1.337   2.607   0.057
  391SOL    HW2 1186   1.321   2.727  -0.053
  392SOL     OW 1187   0.319   2.672   0.949
  392SOL    HW1 1188   0.412   2.708   0.954
  392SOL    HW2 1189   0.313   2.587   1.001
  393SOL     OW 1190   0.339   2.371   1.006
  393SOL    HW1 1191   0.287   2.288   0.989
  393SOL    HW2 1192   0.416   2.376   0.942
  394SOL     OW 1193   1.138   2.242   1.678
  394SOL    HW1 1194   1.093   2.305   1.742
  394SOL    HW2 1195   1.231   2.273   1.661
  395SOL     OW 1196   1.160   2.069   1.477
  395SOL    HW1 1197   1.160   2.133   1.554
  395SOL    HW2 1198   1.188   2.117   1.394
  396SOL     OW 1199   1.002   2.658   1.238
  396SOL    HW1 1200   1.043   2.626   1.324
  396SOL    HW2 1201   0.906   2.631   1.235
  397SOL     OW 1202   0.040   2.406   1.114
  397SOL    HW1 1203   0.125   2.373   1.073
  397SOL    HW2 1204   0.053   2.421   1.212
  398SOL     OW 1205   0.189   2.382   1.722
  398SOL    HW1 1206   0.248   2.342   1.652
  398SOL    HW2 1207   0.131   2.453   1.681
  399SOL     OW 1208   1.369   2.812   1.660
  399SOL    HW1 1209   1.408   2.901   1.680
  399SOL    HW2 1210   1.379   2.792   1.563
  400SOL     OW 1211   0.815   2.434   0.325
  400SOL    HW1 1212   0.822   2.345   0.279
  400SOL    HW2 1213   0.721   2.468   0.317
  401SOL     OW 1214   1.657   2.466   1.206
  401SOL    HW1 1215   1.619   2.397   1.268
  401SOL    HW2 1216   1.739   2.430   1.162
  402SOL     OW 1217   0.671   2.326   1.269
  402SOL    HW1 1218   0.637   2.237   1.239
  402SOL    HW2 1219   0.697   2.380   1.189
  403SOL     OW 1220   0.473   2.362   0.191
  403SOL    HW1 1221   0.534   2.442   0.195
  403SOL    HW2 1222   0.378   2.393   0.198
  404SOL     OW 1223   0.159   2.999   1.466
  404SOL    HW1 1224   0.181   2.938   1.542
  404SOL    HW2 1225   0.169   2.950   1.380
  405SOL     OW 1226   1.347   2.921   1.234
  405SOL    HW1 1227   1.371   2.858   1.160
  405SOL    HW2 1228   1.257   2.961   1.216
  406SOL     OW 1229   1.302   2.717   0.309
  406SOL    HW1 1230   1.216   2.686   0.351
  406SOL    HW2 1231   1.298   2.703   0.210
  407SOL     OW 1232   0.903   1.948   0.133
  407SOL    HW1 1233   0.954   1.949   0.047
  407SOL    HW2 1234   0.959   1.906   0.204
  408SOL     OW 1235   1.726   1.997   0.523
  408SOL    HW1 1236   1.799   1.980   0.456
  408SOL    HW2 1237   1.695   1.910   0.561
  409SOL     OW 1238   1.280   2.789   0.672
  409SOL    HW1 1239   1.340   2.708   0.674
  409SOL    HW2 1240   1.320   2.858   0.612
  410SOL     OW 1241   1.841   2.037   0.963
  410SOL    HW1 1242   1.880   1.952   0.927
  410SOL    HW2 1243   1.743   2.039   0.944
  411SOL     OW 1244   0.263   2.188   0.720
  411SOL    HW1 1245   0.184   2.239   0.686
  411SOL    HW2 1246   0.254   2.173   0.818
  412SOL     OW 1247   1.014   2.098   0.971
  412SOL    HW1 1248   1.006   2.062   0.878
  412SOL    HW2 1249   1.012   2.022   1.036
  413SOL     OW 1250   1.709   2.247   1.381
  413SOL    HW1 1251   1.782   2.316   1.385
  413SOL    HW2 1252   1.737   2.172   1.322
  414SOL     OW 1253   0.105   2.875   1.726
  414SOL    HW1 1254   0.028   2.842   1.780
  414SOL    HW2 1255   0.190   2.845   1.768
  415SOL     OW 1256   0.672   2.065   1.489
  415SOL    HW1 1257   0.762   2.049   1.449
  415SOL    HW2 1258   0.680   2.070   1.588
  416SOL     OW 1259   0.075   2.207   0.033
  416SOL    HW1 1260  -0.017   2.179   0.004
  416SOL    HW2 1261   0.106   2.284  -0.023
  417SOL     OW 1262   1.440   2.718   1.398
  417SOL    HW1 1263   1.383   2.770   1.335
  417SOL    HW2 1264   1.536   2.730   1.374
  418SOL     OW 1265   0.072   2.028   0.318
  418SOL    HW1 1266   0.055   2.111   0.264
  418SOL    HW2 1267   0.162   1.991   0.296
  419SOL     OW 1268   0.613   2.704   1.431
  419SOL    HW1 1269   0.669   2.785   1.414
  419SOL    HW2 1270   0.672   2.624   1.434
  420SOL     OW 1271   0.716   2.427   1.708
  420SOL    HW1 1272   0.735   2.492   1.782
  420SOL    HW2 1273   0.776   2.347   1.717
  421SOL     OW 1274   1.674   2.745   1.254
  421SOL    HW1 1275   1.647   2.656   1.217
  421SOL    HW2 1276   1.675   2.813   1.181
  422SOL     OW 1277   1.225   2.187   0.449
  422SOL    HW1 1278   1.290   2.113   0.438
  422SOL    HW2 1279   1.245   2.237   0.533
  423SOL     OW 1280   0.594   2.607   0.652
  423SOL    HW1 1281   0.644   2.692   0.633
  423SOL    HW2 1282   0.506   2.609   0.604
  424SOL     OW 1283   1.777   2.204   1.642
  424SOL    HW1 1284   1.760   2.235   1.548
  424SOL    HW2 1285   1.693   2.167   1.680
  425SOL     OW 1286   1.730   2.796   1.517
  425SOL    HW1 1287   1.768   2.887   1.532
  425SOL    HW2 1288   1.722   2.779   1.418
  426SOL     OW 1289   1.083   2.846   0.087
  426SOL    HW1 1290   1.060   2.899   0.005
  426SOL    HW2 1291   1.164   2.790   0.068
  427SOL     OW 1292   1.824   2.054   1.227
  427SOL    HW1 1293   1.820   1.964   1.271
  427SOL    HW2 1294   1.827   2.043   1.128
  428SOL     OW 1295   0.428   2.286   0.520
  428SOL    HW1 1296   0.458   2.214   0.458
  428SOL    HW2 1297   0.389   2.246   0.603
  429SOL     OW 1298   0.317   2.409   1.280
  429SOL    HW1 1299   0.355   2.350   1.352
  429SOL    HW2 1300   0.357   2.383   1.192
  430SOL     OW 1301   1.424   2.076   1.112
  430SOL    HW1 1302   1.476   2.011   1.167
  430SOL    HW2 1303   1.375   2.139   1.173
  431SOL     OW 1304   1.001   1.896   1.154
  431SOL    HW1 1305   0.938   1.824   1.123
  431SOL    HW2 1306   1.094   1.860   1.154
  432SOL     OW 1307   1.352   1.914   0.168
  432SOL    HW1 1308   1.387   1.873   0.084
  432SOL    HW2 1309   1.262   1.876   0.188
  433SOL     OW 1310   1.300   2.315   0.691
  433SOL    HW1 1311   1.241   2.395   0.695
  433SOL    HW2 1312   1.315   2.280   0.784
  434SOL     OW 1313   1.593   2.083   0.882
  434SOL    HW1 1314   1.509   2.082   0.936
  434SOL    HW2 1315   1.595   2.166   0.826
  435SOL     OW 1316   0.230   2.490   1.975
  435SOL    HW1 1317   0.137   2.488   2.012
  435SOL    HW2 1318   0.231   2.451   1.883
  436SOL     OW 1319   0.225   2.137   2.858
  436SOL    HW1 1320   0.260   2.120   2.950
  436SOL    HW2 1321   0.137   2.092   2.846
  437SOL     OW 1322   0.019   2.230   2.509
  437SOL    HW1 1323  -0.063   2.273   2.548
  437SOL    HW2 1324  -0.009   2.157   2.446
  438SOL     OW 1325   1.135   2.565   2.579
  438SOL    HW1 1326   1.192   2.643   2.554
  438SOL    HW2 1327   1.075   2.591   2.655
  439SOL     OW 1328   1.755   2.469   2.093
  439SOL    HW1 1329   1.743   2.456   1.994
  439SOL    HW2 1330   1.725   2.388   2.142
  440SOL     OW 1331   0.685   2.874   2.527
  440SOL    HW1 1332   0.754   2.858   2.597
  440SOL    HW2 1333   0.612   2.931   2.565
  441SOL     OW 1334   1.603   2.309   2.599
  441SOL    HW1 1335   1.529   2.355   2.549
  441SOL    HW2 1336   1.654   2.377   2.652
  442SOL     OW 1337   0.122   2.505   2.425
  442SOL    HW1 1338   0.077   2.417   2.442
  442SOL    HW2 1339   0.121   2.559   2.509
  443SOL     OW 1340   0.613   3.227   2.588
  443SOL    HW1 1341   0.564   3.140   2.597
  443SOL    HW2 1342   0.590   3.270   2.501
  444SOL     OW 1343   0.809   1.866   2.364
  444SOL    HW1 1344   0.849   1.957   2.355
  444SOL    HW2 1345   0.709   1.874   2.370
  445SOL     OW 1346   1.525   2.861   2.052
  445SOL    HW1 1347   1.462   2.785   2.065
  445SOL    HW2 1348   1.573   2.879   2.138
  446SOL     OW 1349   0.598   2.591   2.132
  446SOL    HW1 1350   0.622   2.660   2.064
  446SOL    HW2 1351   0.520   2.624   2.186
  447SOL     OW 1352   1.281   2.207   2.806
  447SOL    HW1 1353   1.195   2.157   2.793
  447SOL    HW2 1354   1.343   2.153   2.862
  448SOL     OW 1355   1.041   2.563   2.291
  448SOL    HW1 1356   1.067   2.559   2.387
  448SOL    HW2 1357   0.956   2.512   2.277
  449SOL     OW 1358   0.076   2.673   2.651
  449SOL    HW1 1359   0.175   2.661   2.660
  449SOL    HW2 1360   0.052   2.768   2.672
  450SOL     OW 1361   0.865   2.210   2.057
  450SOL    HW1 1362   0.924   2.273   2.008
  450SOL    HW2 1363   0.884   2.116   2.028
  451SOL     OW 1364   1.458   2.597   2.590
  451SOL    HW1 1365   1.453   2.532   2.665
  451SOL    HW2 1366   1.538   2.656   2.603
  452SOL     OW 1367   1.400   1.969   2.288
  452SOL    HW1 1368   1.376   1.932   2.198
  452SOL    HW2 1369   1.499   1.985   2.292
  453SOL     OW 1370   0.382   2.562   2.342
  453SOL    HW1 1371   0.427   2.472   2.339
  453SOL    HW2 1372   0.288   2.551   2.375
  454SOL     OW 1373   0.614   1.984   1.979
  454SOL    HW1 1374   0.712   1.962   1.986
  454SOL    HW2 1375   0.583   1.967   1.886
  455SOL     OW 1376   0.922   2.365   2.761
  455SOL    HW1 1377   0.897   2.356   2.665
  455SOL    HW2 1378   0.970   2.283   2.792
  456SOL     OW 1379   0.539   1.926   2.374
  456SOL    HW1 1380   0.458   1.927   2.432
  456SOL    HW2 1381   0.542   2.009   2.319
  457SOL     OW 1382   0.297   1.897   2.033
  457SOL    HW1 1383   0.346   1.981   2.012
  457SOL    HW2 1384   0.359   1.832   2.078
  458SOL     OW 1385   0.935   2.098   2.342
  458SOL    HW1 1386   0.887   2.139   2.264
  458SOL    HW2 1387   1.034   2.096   2.323
  459SOL     OW 1388   1.032   2.411   1.878
  459SOL    HW1 1389   0.991   2.493   1.839
  459SOL    HW2 1390   1.096   2.437   1.951
  460SOL     OW 1391   0.866   2.316   2.504
  460SOL    HW1 1392   0.834   2.388   2.442
  460SOL    HW2 1393   0.890   2.235   2.451
  461SOL     OW 1394   1.017   1.901   2.615
  461SOL    HW1 1395   0.945   1.906   2.546
  461SOL    HW2 1396   0.993   1.832   2.684
  462SOL     OW 1397   1.857   2.695   2.239
  462SOL    HW1 1398   1.899   2.631   2.303
  462SOL    HW2 1399   1.819   2.644   2.161
  463SOL     OW 1400   1.390   2.437   1.940
  463SOL    HW1 1401   1.336   2.416   2.021
  463SOL    HW2 1402   1.481   2.396   1.949
  464SOL     OW 1403   0.527   2.118   2.190
  464SOL    HW1 1404   0.554   2.059   2.115
  464SOL    HW2 1405   0.527   2.213   2.159
  465SOL     OW 1406   1.111   3.057   2.962
  465SOL    HW1 1407   1.071   3.101   3.043
  465SOL    HW2 1408   1.070   3.094   2.879
  466SOL     OW 1409   1.638   2.961   2.941
  466SOL    HW1 1410   1.643   3.042   3.000
  466SOL    HW2 1411   1.552   2.963   2.890
  467SOL     OW 1412   0.566   2.399   2.727
  467SOL    HW1 1413   0.578   2.465   2.653
  467SOL    HW2 1414   0.612   2.433   2.810
  468SOL     OW 1415   1.582   2.501   2.334
  468SOL    HW1 1416   1.551   2.562   2.407
  468SOL    HW2 1417   1.632   2.553   2.265
  469SOL     OW 1418   0.573   2.732   2.891
  469SOL    HW1 1419   0.617   2.821   2.882
  469SOL    HW2 1420   0.510   2.732   2.968
  470SOL     OW 1421   1.209   2.387   2.137
  470SOL    HW1 1422   1.222   2.303   2.191
  470SOL    HW2 1423   1.180   2.461   2.197
  471SOL     OW 1424   0.307   2.075   3.093
  471SOL    HW1 1425   0.284   2.112   3.183
  471SOL    HW2 1426   0.277   1.980   3.087
  472SOL     OW 1427   0.732   2.496   2.926
  472SOL    HW1 1428   0.791   2.470   2.850
  472SOL    HW2 1429   0.704   2.592   2.915
  473SOL     OW 1430   0.307   1.925   2.480
  473SOL    HW1 1431   0.296   2.019   2.513
  473SOL    HW2 1432   0.302   1.862   2.557
  474SOL     OW 1433   1.622   2.229   2.236
  474SOL    HW1 1434   1.624   2.153   2.300
  474SOL    HW2 1435   1.574   2.306   2.276
  475SOL     OW 1436   1.540   2.136   1.987
  475SOL    HW1 1437   1.479   2.061   2.010
  475SOL    HW2 1438   1.562   2.188   2.070
  476SOL     OW 1439   1.303   2.700   1.904
  476SOL    HW1 1440   1.337   2.607   1.919
  476SOL    HW2 1441   1.321   2.727   1.809
  477SOL     OW 1442   0.319   2.672   2.811
  477SOL    HW1 1443   0.412   2.708   2.816
  477SOL    HW2 1444   0.313   2.587   2.863
  478SOL     OW 1445   0.815   2.434   2.187
  478SOL    HW1 1446   0.822   2.345   2.141
  478SOL    HW2 1447   0.721   2.468   2.179
  479SOL     OW 1448   0.671   2.326   3.131
  479SOL    HW1 1449   0.637   2.237   3.101
  479SOL    HW2 1450   0.697   2.380   3.051
  480SOL     OW 1451   0.473   2.362   2.053
  480SOL    HW1 1452   0.534   2.442   2.057
  480SOL    HW2 1453   0.378   2.393   2.060
  481SOL     OW 1454   1.302   2.717   2.171
  481SOL    HW1 1455   1.216   2.686   2.213
  481SOL    HW2 1456   1.298   2.703   2.072
  482SOL     OW 1457   1.726   1.997   2.385
  482SOL    HW1 1458   1.799   1.980   2.318
  482SOL    HW2 1459   1.695   1.910   2.423
  483SOL     OW 1460   1.280   2.789   2.534
  483SOL    HW1 1461   1.340   2.708   2.536
  483SOL    HW2 1462   1.320   2.858   2.474
  484SOL     OW 1463   1.841   2.037   2.825
  484SOL    HW1 1464   1.880   1.952   2.789
  484SOL    HW2 1465   1.743   2.039   2.806
  485SOL     OW 1466   0.263   2.188   2.582
  485SOL    HW1 1467   0.184   2.239   2.548
  485SOL    HW2 1468   0.254   2.173   2.680
  486SOL     OW 1469   0.916   2.772   2.153
  486SOL    HW1 1470   0.979   2.810   2.085
  486SOL    HW2 1471   0.956   2.689   2.192
  487SOL     OW 1472   0.075   2.207   1.895
  487SOL    HW1 1473  -0.017   2.179   1.866
  487SOL    HW2 1474   0.106   2.284   1.839
  488SOL     OW 1475   0.072   2.028   2.180
  488SOL    HW1 1476   0.055   2.111   2.126
  488SOL    HW2 1477   0.162   1.991   2.158
  489SOL     OW 1478   1.674   2.745   3.116
  489SOL    HW1 1479   1.647   2.656   3.079
  489SOL    HW2 1480   1.675   2.813   3.043
  490SOL     OW 1481   1.225   2.187   2.311
  490SOL    HW1 1482   1.290   2.113   2.300
  490SOL    HW2 1483   1.245   2.237   2.395
  491SOL     OW 1484   0.594   2.607   2.514
  491SOL    HW1 1485   0.644   2.692   2.495
  491SOL    HW2 1486   0.506   2.609   2.466
  492SOL     OW 1487   1.824   2.054   3.089
  492SOL    HW1 1488   1.820   1.964   3.133
  492SOL    HW2 1489   1.827   2.043   2.990
  493SOL     OW 1490   0.428   2.286   2.382
  493SOL    HW1 1491   0.458   2.214   2.320
  493SOL    HW2 1492   0.389   2.246   2.465
  494SOL     OW 1493   1.352   1.914   2.030
  494SOL    HW1 1494   1.387   1.873   1.946
  494SOL    HW2 1495   1.262   1.876   2.050
  495SOL     OW 1496   1.300   2.315   2.553
  495SOL    HW1 1497   1.241   2.395   2.557
  495SOL    HW2 1498   1.315   2.280   2.646
  496SOL     OW 1499   1.593   2.083   2.744
  496SOL    HW1 1500   1.509   2.082   2.798
  496SOL    HW2 1501   1.595   2.166   2.688
  497SOL     OW 1502   2.092   0.628   0.113
  497SOL    HW1 1503   1.999   0.626   0.150
  497SOL    HW2 1504   2.093   0.589   0.021
  498SOL     OW 1505   2.087   0.275   0.996
  498SOL    HW1 1506   2.122   0.258   1.088
  498SOL    HW2 1507   1.999   0.230   0.984
  499SOL     OW 1508   1.881   0.368   0.647
  499SOL    HW1 1509   1.799   0.411   0.686
  499SOL    HW2 1510   1.853   0.295   0.584
  500SOL     OW 1511   2.431   1.275   1.165
  500SOL    HW1 1512   2.338   1.268   1.128
  500SOL    HW2 1513   2.442   1.364   1.209
  501SOL     OW 1514   2.630   1.144   1.023
  501SOL    HW1 1515   2.552   1.161   1.083
  501SOL    HW2 1516   2.664   1.231   0.987
  502SOL     OW 1517   2.712   0.798   1.823
  502SOL    HW1 1518   2.708   0.874   1.888
  502SOL    HW2 1519   2.734   0.834   1.732
  503SOL     OW 1520   2.547   1.012   0.665
  503SOL    HW1 1521   2.616   0.996   0.735
  503SOL    HW2 1522   2.474   1.069   0.703
  504SOL     OW 1523   2.548   1.161   1.803
  504SOL    HW1 1524   2.608   1.240   1.817
  504SOL    HW2 1525   2.462   1.192   1.762
  505SOL     OW 1526   2.197   1.435   1.061
  505SOL    HW1 1527   2.119   1.404   1.008
  505SOL    HW2 1528   2.255   1.493   1.004
  506SOL     OW 1529   2.300   0.392   1.499
  506SOL    HW1 1530   2.382   0.336   1.508
  506SOL    HW2 1531   2.219   0.334   1.503
  507SOL     OW 1532   2.093   1.713   0.483
  507SOL    HW1 1533   2.127   1.790   0.537
  507SOL    HW2 1534   2.137   1.713   0.393
  508SOL     OW 1535   2.092   1.434   0.538
  508SOL    HW1 1536   2.066   1.530   0.538
  508SOL    HW2 1537   2.021   1.380   0.583
  509SOL     OW 1538   2.102   1.091   0.886
  509SOL    HW1 1539   2.116   1.007   0.938
  509SOL    HW2 1540   2.047   1.155   0.941
  510SOL     OW 1541   2.482   1.786   1.439
  510SOL    HW1 1542   2.390   1.769   1.474
  510SOL    HW2 1543   2.510   1.878   1.465
  511SOL     OW 1544   2.468   0.964   0.123
  511SOL    HW1 1545   2.475   1.048   0.069
  511SOL    HW2 1546   2.514   0.977   0.211
  512SOL     OW 1547   1.984   0.643   0.563
  512SOL    HW1 1548   1.939   0.555   0.580
  512SOL    HW2 1549   1.983   0.697   0.647
  513SOL     OW 1550   1.975   0.737   1.597
  513SOL    HW1 1551   2.063   0.724   1.642
  513SOL    HW2 1552   1.962   0.834   1.575
  514SOL     OW 1553   2.475   1.365   0.726
  514SOL    HW1 1554   2.426   1.278   0.735
  514SOL    HW2 1555   2.452   1.408   0.639
  515SOL     OW 1556   2.671   0.004   0.502
  515SOL    HW1 1557   2.711   0.095   0.493
  515SOL    HW2 1558   2.571   0.012   0.508
  516SOL     OW 1559   2.059   0.976   1.264
  516SOL    HW1 1560   2.148   0.931   1.250
  516SOL    HW2 1561   1.986   0.911   1.245
  517SOL     OW 1562   2.179   0.251   1.801
  517SOL    HW1 1563   2.250   0.322   1.807
  517SOL    HW2 1564   2.091   0.290   1.829
  518SOL     OW 1565   2.460   0.729   0.270
  518SOL    HW1 1566   2.484   0.798   0.202
  518SOL    HW2 1567   2.382   0.762   0.324
  519SOL     OW 1568   2.669   0.605   1.465
  519SOL    HW1 1569   2.622   0.602   1.554
  519SOL    HW2 1570   2.618   0.550   1.399
  520SOL     OW 1571   1.938   0.811   0.789
  520SOL    HW1 1572   2.037   0.799   0.798
  520SOL    HW2 1573   1.914   0.906   0.810
  521SOL     OW 1574   1.992   1.821   1.571
  521SOL    HW1 1575   1.982   1.806   1.670
  521SOL    HW2 1576   1.906   1.857   1.535
  522SOL     OW 1577   2.727   0.348   0.195
  522SOL    HW1 1578   2.786   0.411   0.146
  522SOL    HW2 1579   2.746   0.254   0.166
  523SOL     OW 1580   2.412   0.196   0.885
  523SOL    HW1 1581   2.407   0.191   0.985
  523SOL    HW2 1582   2.414   0.292   0.856
  524SOL     OW 1583   2.870   1.456   0.477
  524SOL    HW1 1584   2.824   1.528   0.425
  524SOL    HW2 1585   2.866   1.476   0.575
  525SOL     OW 1586   2.213   1.801   0.853
  525SOL    HW1 1587   2.263   1.715   0.859
  525SOL    HW2 1588   2.278   1.878   0.850
  526SOL     OW 1589   2.183   0.943   0.242
  526SOL    HW1 1590   2.265   0.982   0.200
  526SOL    HW2 1591   2.156   0.861   0.193
  527SOL     OW 1592   2.323   1.266   1.727
  527SOL    HW1 1593   2.273   1.267   1.641
  527SOL    HW2 1594   2.260   1.248   1.803
  528SOL     OW 1595   2.064   0.285   1.498
  528SOL    HW1 1596   1.984   0.345   1.485
  528SOL    HW2 1597   2.054   0.236   1.584
  529SOL     OW 1598   2.326   1.743   0.323
  529SOL    HW1 1599   2.359   1.782   0.409
  529SOL    HW2 1600   2.402   1.736   0.258
  530SOL     OW 1601   2.111   1.785   1.241
  530SOL    HW1 1602   2.168   1.720   1.291
  530SOL    HW2 1603   2.095   1.752   1.148
  531SOL     OW 1604   2.244   0.700   0.480
  531SOL    HW1 1605   2.289   0.610   0.477
  531SOL    HW2 1606   2.150   0.689   0.513
  532SOL     OW 1607   2.476   0.122   0.117
  532SOL    HW1 1608   2.574   0.100   0.124
  532SOL    HW2 1609   2.445   0.105   0.024
  533SOL     OW 1610   2.643   0.264   1.749
  533SOL    HW1 1611   2.710   0.203   1.792
  533SOL    HW2 1612   2.570   0.283   1.814
  534SOL     OW 1613   2.750   1.514   1.195
  534SOL    HW1 1614   2.727   1.489   1.101
  534SOL    HW2 1615   2.811   1.445   1.234
  535SOL     OW 1616   2.665   1.402   0.924
  535SOL    HW1 1617   2.755   1.416   0.882
  535SOL    HW2 1618   2.594   1.404   0.853
  536SOL     OW 1619   2.784   0.503   0.899
  536SOL    HW1 1620   2.759   0.494   0.803
  536SOL    HW2 1621   2.832   0.421   0.930
  537SOL     OW 1622   2.401   0.064   0.512
  537SOL    HW1 1623   2.320   0.065   0.570
  537SOL    HW2 1624   2.404   0.147   0.457
  538SOL     OW 1625   2.159   0.035   0.171
  538SOL    HW1 1626   2.208   0.119   0.150
  538SOL    HW2 1627   2.221  -0.030   0.216
  539SOL     OW 1628   3.089   1.570   0.793
  539SOL    HW1 1629   3.110   1.644   0.728
  539SOL    HW2 1630   3.157   1.570   0.866
  540SOL     OW 1631   2.321   1.152   0.741
  540SOL    HW1 1632   2.250   1.125   0.806
  540SOL    HW2 1633   2.295   1.124   0.648
  541SOL     OW 1634   1.940   0.556   1.386
  541SOL    HW1 1635   2.032   0.555   1.345
  541SOL    HW2 1636   1.934   0.630   1.453
  542SOL     OW 1637   2.423   0.222   1.147
  542SOL    HW1 1638   2.461   0.138   1.184
  542SOL    HW2 1639   2.335   0.241   1.191
  543SOL     OW 1640   2.879   0.039   0.753
  543SOL    HW1 1641   2.807   0.044   0.684
  543SOL    HW2 1642   2.855  -0.030   0.822
  544SOL     OW 1643   2.350   1.385   0.174
  544SOL    HW1 1644   2.263   1.370   0.221
  544SOL    HW2 1645   2.333   1.411   0.079
  545SOL     OW 1646   2.389   0.256   0.328
  545SOL    HW1 1647   2.416   0.197   0.253
  545SOL    HW2 1648   2.389   0.351   0.297
  546SOL     OW 1649   2.777   0.089   1.402
  546SOL    HW1 1650   2.802   0.069   1.307
  546SOL    HW2 1651   2.849   0.145   1.444
  547SOL     OW 1652   2.567   1.050   0.368
  547SOL    HW1 1653   2.553   1.057   0.467
  547SOL    HW2 1654   2.651   0.999   0.350
  548SOL     OW 1655   2.272   0.813   1.251
  548SOL    HW1 1656   2.358   0.825   1.301
  548SOL    HW2 1657   2.230   0.726   1.278
  549SOL     OW 1658   1.926   1.564   1.331
  549SOL    HW1 1659   1.880   1.646   1.297
  549SOL    HW2 1660   2.024   1.583   1.340
  550SOL     OW 1661   2.229   1.100   0.501
  550SOL    HW1 1662   2.222   1.183   0.445
  550SOL    HW2 1663   2.233   1.020   0.441
  551SOL     OW 1664   2.428   0.537   0.865
  551SOL    HW1 1665   2.440   0.603   0.791
  551SOL    HW2 1666   2.474   0.571   0.948
  552SOL     OW 1667   2.216   1.510   1.329
  552SOL    HW1 1668   2.195   1.466   1.242
  552SOL    HW2 1669   2.313   1.536   1.332
  553SOL     OW 1670   2.264   0.751   1.598
  553SOL    HW1 1671   2.332   0.806   1.551
  553SOL    HW2 1672   2.304   0.663   1.625
  554SOL     OW 1673   2.366   0.050   1.740
  554SOL    HW1 1674   2.324  -0.007   1.670
  554SOL    HW2 1675   2.300   0.119   1.772
  555SOL     OW 1676   2.435   0.870   1.029
  555SOL    HW1 1677   2.479   0.959   1.020
  555SOL    HW2 1678   2.372   0.870   1.106
  556SOL     OW 1679   3.071   0.525   0.275
  556SOL    HW1 1680   3.084   0.441   0.329
  556SOL    HW2 1681   3.042   0.599   0.335
  557SOL     OW 1682   2.169   0.213   1.231
  557SOL    HW1 1683   2.146   0.250   1.321
  557SOL    HW2 1684   2.139   0.118   1.225
  558SOL     OW 1685   1.899   1.310   1.282
  558SOL    HW1 1686   1.952   1.261   1.350
  558SOL    HW2 1687   1.921   1.408   1.287
  559SOL     OW 1688   2.594   0.634   1.064
  559SOL    HW1 1689   2.653   0.608   0.988
  559SOL    HW2 1690   2.566   0.730   1.053
  560SOL     OW 1691   2.169   0.063   0.618
  560SOL    HW1 1692   2.158   0.157   0.651
  560SOL    HW2 1693   2.164   0.000   0.695
  561SOL     OW 1694   2.885   0.766   0.966
  561SOL    HW1 1695   2.900   0.787   1.062
  561SOL    HW2 1696   2.855   0.671   0.957
  562SOL     OW 1697   2.842   1.573   1.700
  562SOL    HW1 1698   2.822   1.617   1.612
  562SOL    HW2 1699   2.881   1.482   1.684
  563SOL     OW 1700   2.212   0.898   1.804
  563SOL    HW1 1701   2.288   0.942   1.852
  563SOL    HW2 1702   2.247   0.851   1.722
  564SOL     OW 1703   2.181   0.810   0.949
  564SOL    HW1 1704   2.274   0.846   0.954
  564SOL    HW2 1705   2.175   0.725   1.001
  565SOL     OW 1706   2.201   0.509   1.006
  565SOL    HW1 1707   2.149   0.426   0.989
  565SOL    HW2 1708   2.278   0.514   0.942
  566SOL     OW 1709   1.870   1.326   0.200
  566SOL    HW1 1710   1.777   1.347   0.169
  566SOL    HW2 1711   1.880   1.227   0.213
  567SOL     OW 1712   1.950   1.801   0.927
  567SOL    HW1 1713   1.908   1.715   0.900
  567SOL    HW2 1714   2.044   1.804   0.893
  568SOL     OW 1715   2.366   1.568   0.910
  568SOL    HW1 1716   2.432   1.642   0.919
  568SOL    HW2 1717   2.410   1.489   0.868
  569SOL     OW 1718   2.864   0.796   1.238
  569SOL    HW1 1719   2.905   0.764   1.324
  569SOL    HW2 1720   2.768   0.769   1.235
  570SOL     OW 1721   1.902   0.544   1.114
  570SOL    HW1 1722   1.987   0.511   1.073
  570SOL    HW2 1723   1.915   0.559   1.212
  571SOL     OW 1724   2.051   0.520   1.722
  571SOL    HW1 1725   2.110   0.480   1.652
  571SOL    HW2 1726   1.993   0.591   1.681
  572SOL     OW 1727   2.677   0.572   0.325
  572SOL    HW1 1728   2.684   0.483   0.279
  572SOL    HW2 1729   2.583   0.606   0.317
  573SOL     OW 1730   2.114   1.564   1.744
  573SOL    HW1 1731   2.084   1.621   1.820
  573SOL    HW2 1732   2.107   1.467   1.770
  574SOL     OW 1733   2.533   0.464   1.269
  574SOL    HW1 1734   2.499   0.375   1.239
  574SOL    HW2 1735   2.559   0.518   1.189
  575SOL     OW 1736   2.792   1.678   1.465
  575SOL    HW1 1737   2.768   1.660   1.370
  575SOL    HW2 1738   2.822   1.772   1.475
  576SOL     OW 1739   2.335   0.500   0.191
  576SOL    HW1 1740   2.396   0.580   0.195
  576SOL    HW2 1741   2.240   0.531   0.198
  577SOL     OW 1742   2.021   1.137   1.466
  577SOL    HW1 1743   2.043   1.076   1.542
  577SOL    HW2 1744   2.031   1.088   1.380
  578SOL     OW 1745   1.945   1.258   1.022
  578SOL    HW1 1746   1.940   1.257   1.122
  578SOL    HW2 1747   1.862   1.217   0.984
  579SOL     OW 1748   2.550   1.662   1.716
  579SOL    HW1 1749   2.494   1.743   1.725
  579SOL    HW2 1750   2.602   1.666   1.630
  580SOL     OW 1751   2.765   0.086   0.133
  580SOL    HW1 1752   2.816   0.087   0.047
  580SOL    HW2 1753   2.821   0.044   0.204
  581SOL     OW 1754   1.992   1.794   1.851
  581SOL    HW1 1755   1.951   1.720   1.904
  581SOL    HW2 1756   2.056   1.845   1.909
  582SOL     OW 1757   3.142   0.927   0.672
  582SOL    HW1 1758   3.202   0.846   0.674
  582SOL    HW2 1759   3.182   0.996   0.612
  583SOL     OW 1760   2.692   1.273   1.422
  583SOL    HW1 1761   2.687   1.306   1.517
  583SOL    HW2 1762   2.606   1.292   1.376
  584SOL     OW 1763   2.534   1.616   0.154
  584SOL    HW1 1764   2.543   1.626   0.055
  584SOL    HW2 1765   2.494   1.527   0.175
  585SOL     OW 1766   2.125   0.326   0.720
  585SOL    HW1 1767   2.046   0.377   0.686
  585SOL    HW2 1768   2.116   0.311   0.818
  586SOL     OW 1769   2.684   1.002   1.372
  586SOL    HW1 1770   2.724   1.001   1.280
  586SOL    HW2 1771   2.694   1.094   1.412
  587SOL     OW 1772   2.234   1.288   1.490
  587SOL    HW1 1773   2.221   1.381   1.456
  587SOL    HW2 1774   2.150   1.236   1.477
  588SOL     OW 1775   2.876   0.236   0.971
  588SOL    HW1 1776   2.868   0.200   0.878
  588SOL    HW2 1777   2.874   0.160   1.036
  589SOL     OW 1778   2.452   1.487   0.491
  589SOL    HW1 1779   2.494   1.429   0.421
  589SOL    HW2 1780   2.408   1.566   0.447
  590SOL     OW 1781   2.117   1.348   0.290
  590SOL    HW1 1782   2.021   1.349   0.263
  590SOL    HW2 1783   2.129   1.401   0.374
  591SOL     OW 1784   1.967   1.013   1.726
  591SOL    HW1 1785   1.890   0.980   1.780
  591SOL    HW2 1786   2.052   0.983   1.768
  592SOL     OW 1787   2.534   0.203   1.489
  592SOL    HW1 1788   2.624   0.187   1.449
  592SOL    HW2 1789   2.542   0.208   1.588
  593SOL     OW 1790   1.937   0.345   0.033
  593SOL    HW1 1791   1.845   0.317   0.004
  593SOL    HW2 1792   1.968   0.422  -0.023
  594SOL     OW 1793   2.475   0.842   1.431
  594SOL    HW1 1794   2.531   0.923   1.414
  594SOL    HW2 1795   2.534   0.762   1.434
  595SOL     OW 1796   2.578   0.565   1.708
  595SOL    HW1 1797   2.597   0.630   1.782
  595SOL    HW2 1798   2.638   0.485   1.717
  596SOL     OW 1799   2.252   1.741   1.560
  596SOL    HW1 1800   2.161   1.782   1.558
  596SOL    HW2 1801   2.245   1.647   1.592
  597SOL     OW 1802   3.087   0.325   0.449
  597SOL    HW1 1803   3.152   0.251   0.438
  597SOL    HW2 1804   3.107   0.375   0.533
  598SOL     OW 1805   2.456   0.745   0.652
  598SOL    HW1 1806   2.506   0.830   0.633
  598SOL    HW2 1807   2.368   0.747   0.604
  599SOL     OW 1808   2.721   1.374   0.016
  599SOL    HW1 1809   2.675   1.389   0.104
  599SOL    HW2 1810   2.765   1.459  -0.014
  600SOL     OW 1811   2.523   1.790   0.953
  600SOL    HW1 1812   2.477   1.878   0.940
  600SOL    HW2 1813   2.622   1.802   0.946
  601SOL     OW 1814   2.721   0.956   0.861
  601SOL    HW1 1815   2.775   0.887   0.909
  601SOL    HW2 1816   2.689   1.025   0.927
  602SOL     OW 1817   2.945   0.984   0.087
  602SOL    HW1 1818   2.922   1.037   0.005
  602SOL    HW2 1819   3.026   0.928   0.068
  603SOL     OW 1820   2.083   1.314   1.844
  603SOL    HW1 1821   2.018   1.241   1.823
  603SOL    HW2 1822   2.087   1.328   1.942
  604SOL     OW 1823   1.941   1.240   0.653
  604SOL    HW1 1824   1.940   1.193   0.741
  604SOL    HW2 1825   2.023   1.212   0.602
  605SOL     OW 1826   2.534   1.391   1.624
  605SOL    HW1 1827   2.456   1.341   1.662
  605SOL    HW2 1828   2.531   1.486   1.655
  606SOL     OW 1829   2.290   0.424   0.520
  606SOL    HW1 1830   2.320   0.352   0.458
  606SOL    HW2 1831   2.251   0.384   0.603
  607SOL     OW 1832   2.179   0.547   1.280
  607SOL    HW1 1833   2.217   0.488   1.352
  607SOL    HW2 1834   2.219   0.521   1.192
  608SOL     OW 1835   2.674   1.586   0.687
  608SOL    HW1 1836   2.706   1.596   0.593
  608SOL    HW2 1837   2.595   1.524   0.689
  609SOL     OW 1838   2.863   0.034   1.154
  609SOL    HW1 1839   2.800  -0.038   1.123
  609SOL    HW2 1840   2.956  -0.002   1.154
  610SOL     OW 1841   2.632   1.330   0.301
  610SOL    HW1 1842   2.586   1.243   0.318
  610SOL    HW2 1843   2.723   1.327   0.342
  611SOL     OW 1844   2.480   1.567   1.284
  611SOL    HW1 1845   2.475   1.649   1.341
  611SOL    HW2 1846   2.569   1.564   1.239
  612SOL     OW 1847   1.901   1.077   0.300
  612SOL    HW1 1848   2.000   1.066   0.291
  612SOL    HW2 1849   1.861   0.991   0.332
  613SOL     OW 1850   2.737   1.646   0.337
  613SOL    HW1 1851   2.660   1.611   0.283
  613SOL    HW2 1852   2.705   1.717   0.399
  614SOL     OW 1853   2.092   0.628   1.975
  614SOL    HW1 1854   1.999   0.626   2.012
  614SOL    HW2 1855   2.093   0.589   1.883
  615SOL     OW 1856   2.087   0.275   2.858
  615SOL    HW1 1857   2.122   0.258   2.950
  615SOL    HW2 1858   1.999   0.230   2.846
  616SOL     OW 1859   1.881   0.368   2.509
  616SOL    HW1 1860   1.799   0.411   2.548
  616SOL    HW2 1861   1.853   0.295   2.446
  617SOL     OW 1862   2.630   1.144   2.885
  617SOL    HW1 1863   2.552   1.161   2.945
  617SOL    HW2 1864   2.664   1.231   2.849
  618SOL     OW 1865   2.547   1.012   2.527
  618SOL    HW1 1866   2.616   0.996   2.597
  618SOL    HW2 1867   2.474   1.069   2.565
  619SOL     OW 1868   2.093   1.713   2.345
  619SOL    HW1 1869   2.127   1.790   2.399
  619SOL    HW2 1870   2.137   1.713   2.255
  620SOL     OW 1871   2.092   1.434   2.400
  620SOL    HW1 1872   2.066   1.530   2.400
  620SOL    HW2 1873   2.021   1.380   2.445
  621SOL     OW 1874   2.102   1.091   2.748
  621SOL    HW1 1875   2.116   1.007   2.800
  621SOL    HW2 1876   2.047   1.155   2.803
  622SOL     OW 1877   2.468   0.964   1.985
  622SOL    HW1 1878   2.475   1.048   1.931
  622SOL    HW2 1879   2.514   0.977   2.073
  623SOL     OW 1880   1.984   0.643   2.425
  623SOL    HW1 1881   1.939   0.555   2.442
  623SOL    HW2 1882   1.983   0.697   2.509
  624SOL     OW 1883   1.889   1.596   1.979
  624SOL    HW1 1884   1.870   1.500   2.000
  624SOL    HW2 1885   1.856   1.654   2.054
  625SOL     OW 1886   2.475   1.365   2.588
  625SOL    HW1 1887   2.426   1.278   2.597
  625SOL    HW2 1888   2.452   1.408   2.501
  626SOL     OW 1889   2.671   0.004   2.364
  626SOL    HW1 1890   2.711   0.095   2.355
  626SOL    HW2 1891   2.571   0.012   2.370
  627SOL     OW 1892   2.460   0.729   2.132
  627SOL    HW1 1893   2.484   0.798   2.064
  627SOL    HW2 1894   2.382   0.762   2.186
  628SOL     OW 1895   1.938   0.811   2.651
  628SOL    HW1 1896   2.037   0.799   2.660
  628SOL    HW2 1897   1.914   0.906   2.672
  629SOL     OW 1898   2.727   0.348   2.057
  629SOL    HW1 1899   2.786   0.411   2.008
  629SOL    HW2 1900   2.746   0.254   2.028
  630SOL     OW 1901   2.870   1.456   2.339
  630SOL    HW1 1902   2.824   1.528   2.287
  630SOL    HW2 1903   2.866   1.476   2.437
  631SOL     OW 1904   2.213   1.801   2.715
  631SOL    HW1 1905   2.263   1.715   2.721
  631SOL    HW2 1906   2.278   1.878   2.712
  632SOL     OW 1907   2.183   0.943   2.104
  632SOL    HW1 1908   2.265   0.982   2.062
  632SOL    HW2 1909   2.156   0.861   2.055
  633SOL     OW 1910   2.326   1.743   2.185
  633SOL    HW1 1911   2.359   1.782   2.271
  633SOL    HW2 1912   2.402   1.736   2.120
  634SOL     OW 1913   2.111   1.785   3.103
  634SOL    HW1 1914   2.168   1.720   3.153
  634SOL    HW2 1915   2.095   1.752   3.010
  635SOL     OW 1916   2.244   0.700   2.342
  635SOL    HW1 1917   2.289   0.610   2.339
  635SOL    HW2 1918   2.150   0.689   2.375
  636SOL     OW 1919   2.476   0.122   1.979
  636SOL    HW1 1920   2.574   0.100   1.986
  636SOL    HW2 1921   2.445   0.105   1.886
  637SOL     OW 1922   2.784   0.503   2.761
  637SOL    HW1 1923   2.759   0.494   2.665
  637SOL    HW2 1924   2.832   0.421   2.792
  638SOL     OW 1925   2.401   0.064   2.374
  638SOL    HW1 1926   2.320   0.065   2.432
  638SOL    HW2 1927   2.404   0.147   2.319
  639SOL     OW 1928   2.159   0.035   2.033
  639SOL    HW1 1929   2.208   0.119   2.012
  639SOL    HW2 1930   2.221  -0.030   2.078
  640SOL     OW 1931   3.089   1.570   2.655
  640SOL    HW1 1932   3.110   1.644   2.590
  640SOL    HW2 1933   3.157   1.570   2.728
  641SOL     OW 1934   2.321   1.152   2.603
  641SOL    HW1 1935   2.250   1.125   2.668
  641SOL    HW2 1936   2.295   1.124   2.510
  642SOL     OW 1937   2.879   0.039   2.615
  642SOL    HW1 1938   2.807   0.044   2.546
  642SOL    HW2 1939   2.855  -0.030   2.684
  643SOL     OW 1940   2.350   1.385   2.036
  643SOL    HW1 1941   2.263   1.370   2.083
  643SOL    HW2 1942   2.333   1.411   1.941
  644SOL     OW 1943   2.389   0.256   2.190
  644SOL    HW1 1944   2.416   0.197   2.115
  644SOL    HW2 1945   2.389   0.351   2.159
  645SOL     OW 1946   2.567   1.050   2.230
  645SOL    HW1 1947   2.553   1.057   2.329
  645SOL    HW2 1948   2.651   0.999   2.212
  646SOL     OW 1949   2.229   1.100   2.363
  646SOL    HW1 1950   2.222   1.183   2.307
  646SOL    HW2 1951   2.233   1.020   2.303
  647SOL     OW 1952   2.428   0.537   2.727
  647SOL    HW1 1953   2.440   0.603   2.653
  647SOL    HW2 1954   2.474   0.571   2.810
  648SOL     OW 1955   3.071   0.525   2.137
  648SOL    HW1 1956   3.084   0.441   2.191
  648SOL    HW2 1957   3.042   0.599   2.197
  649SOL     OW 1958   2.594   0.634   2.926
  649SOL    HW1 1959   2.653   0.608   2.850
  649SOL    HW2 1960   2.566   0.730   2.915
  650SOL     OW 1961   2.169   0.063   2.480
  650SOL    HW1 1962   2.158   0.157   2.513
  650SOL    HW2 1963   2.164   0.000   2.557
  651SOL     OW 1964   2.885   0.766   2.828
  651SOL    HW1 1965   2.900   0.787   2.924
  651SOL    HW2 1966   2.855   0.671   2.819
  652SOL     OW 1967   2.181   0.810   2.811
  652SOL    HW1 1968   2.274   0.846   2.816
  652SOL    HW2 1969   2.175   0.725   2.863
  653SOL     OW 1970   1.870   1.326   2.062
  653SOL    HW1 1971   1.777   1.347   2.031
  653SOL    HW2 1972   1.880   1.227   2.075
  654SOL     OW 1973   1.950   1.801   2.789
  654SOL    HW1 1974   1.908   1.715   2.762
  654SOL    HW2 1975   2.044   1.804   2.755
  655SOL     OW 1976   2.366   1.568   2.772
  655SOL    HW1 1977   2.432   1.642   2.781
  655SOL    HW2 1978   2.410   1.489   2.730
  656SOL     OW 1979   2.864   0.796   3.100
  656SOL    HW1 1980   2.905   0.764   3.186
  656SOL    HW2 1981   2.768   0.769   3.097
  657SOL     OW 1982   2.677   0.572   2.187
  657SOL    HW1 1983   2.684   0.483   2.141
  657SOL    HW2 1984   2.583   0.606   2.179
  658SOL     OW 1985   2.533   0.464   3.131
  658SOL    HW1 1986   2.499   0.375   3.101
  658SOL    HW2 1987   2.559   0.518   3.051
  659SOL     OW 1988   2.335   0.500   2.053
  659SOL    HW1 1989   2.396   0.580   2.057
  659SOL    HW2 1990   2.240   0.531   2.060
  660SOL     OW 1991   2.765   0.086   1.995
  660SOL    HW1 1992   2.816   0.087   1.909
  660SOL    HW2 1993   2.821   0.044   2.066
  661SOL     OW 1994   3.142   0.927   2.534
  661SOL    HW1 1995   3.202   0.846   2.536
  661SOL    HW2 1996   3.182   0.996   2.474
  662SOL     OW 1997   2.534   1.616   2.016
  662SOL    HW1 1998   2.543   1.626   1.917
  662SOL    HW2 1999   2.494   1.527   2.037
  663SOL     OW 2000   2.125   0.326   2.582
  663SOL    HW1 2001   2.046   0.377   2.548
  663SOL    HW2 2002   2.116   0.311   2.680
  664SOL     OW 2003   2.452   1.487   2.353
  664SOL    HW1 2004   2.494   1.429   2.283
  664SOL    HW2 2005   2.408   1.566   2.309
  665SOL     OW 2006   2.117   1.348   2.152
  665SOL    HW1 2007   2.021   1.349   2.125
  665SOL    HW2 2008   2.129   1.401   2.236
  666SOL     OW 2009   1.937   0.345   1.895
  666SOL    HW1 2010   1.845   0.317   1.866
  666SOL    HW2 2011   1.968   0.422   1.839
  667SOL     OW 2012   1.934   0.166   2.180
  667SOL    HW1 2013   1.917   0.249   2.126
  667SOL    HW2 2014   2.024   0.129   2.158
  668SOL     OW 2015   3.087   0.325   2.311
  668SOL    HW1 2016   3.152   0.251   2.300
  668SOL    HW2 2017   3.107   0.375   2.395
  669SOL     OW 2018   2.456   0.745   2.514
  669SOL    HW1 2019   2.506   0.830   2.495
  669SOL    HW2 2020   2.368   0.747   2.466
  670SOL     OW 2021   2.721   1.374   1.878
  670SOL    HW1 2022   2.675   1.389   1.966
  670SOL    HW2 2023   2.765   1.459   1.848
  671SOL     OW 2024   2.523   1.790   2.815
  671SOL    HW1 2025   2.477   1.878   2.802
  671SOL    HW2 2026   2.622   1.802   2.808
  672SOL     OW 2027   2.721   0.956   2.723
  672SOL    HW1 2028   2.775   0.887   2.771
  672SOL    HW2 2029   2.689   1.025   2.789
  673SOL     OW 2030   1.941   1.240   2.515
  673SOL    HW1 2031   1.940   1.193   2.603
  673SOL    HW2 2032   2.023   1.212   2.464
  674SOL     OW 2033   2.290   0.424   2.382
  674SOL    HW1 2034   2.320   0.352   2.320
  674SOL    HW2 2035   2.251   0.384   2.465
  675SOL     OW 2036   2.674   1.586   2.549
  675SOL    HW1 2037   2.706   1.596   2.455
  675SOL    HW2 2038   2.595   1.524   2.551
  676SOL     OW 2039   2.632   1.330   2.163
  676SOL    HW1 2040   2.586   1.243   2.180
  676SOL    HW2 2041   2.723   1.327   2.204
  677SOL     OW 2042   1.901   1.077   2.162
  677SOL    HW1 2043   2.000   1.066   2.153
  677SOL    HW2 2044   1.861   0.991   2.194
  678SOL     OW 2045   2.737   1.646   2.199
  678SOL    HW1 2046   2.660   1.611   2.145
  678SOL    HW2 2047   2.705   1.717   2.261
  679SOL     OW 2048   2.092   2.490   0.113
  679SOL    HW1 2049   1.999   2.488   0.150
  679SOL    HW2 2050   2.093   2.451   0.021
  680SOL     OW 2051   2.087   2.137   0.996
  680SOL    HW1 2052   2.122   2.120   1.088
  680SOL    HW2 2053   1.999   2.092   0.984
  681SOL     OW 2054   1.881   2.230   0.647
  681SOL    HW1 2055   1.799   2.273   0.686
  681SOL    HW2 2056   1.853   2.157   0.584
  682SOL     OW 2057   2.712   2.660   1.823
  682SOL    HW1 2058   2.708   2.736   1.888
  682SOL    HW2 2059   2.734   2.696   1.732
  683SOL     OW 2060   2.547   2.874   0.665
  683SOL    HW1 2061   2.616   2.858   0.735
  683SOL    HW2 2062   2.474   2.931   0.703
  684SOL     OW 2063   2.300   2.254   1.499
  684SOL    HW1 2064   2.382   2.198   1.508
  684SOL    HW2 2065   2.219   2.196   1.503
  685SOL     OW 2066   1.984   2.505   0.563
  685SOL    HW1 2067   1.939   2.417   0.580
  685SOL    HW2 2068   1.983   2.559   0.647
  686SOL     OW 2069   1.975   2.599   1.597
  686SOL    HW1 2070   2.063   2.586   1.642
  686SOL    HW2 2071   1.962   2.696   1.575
  687SOL     OW 2072   2.671   1.866   0.502
  687SOL    HW1 2073   2.711   1.957   0.493
  687SOL    HW2 2074   2.571   1.874   0.508
  688SOL     OW 2075   2.059   2.838   1.264
  688SOL    HW1 2076   2.148   2.793   1.250
  688SOL    HW2 2077   1.986   2.773   1.245
  689SOL     OW 2078   2.179   2.113   1.801
  689SOL    HW1 2079   2.250   2.184   1.807
  689SOL    HW2 2080   2.091   2.152   1.829
  690SOL     OW 2081   2.460   2.591   0.270
  690SOL    HW1 2082   2.484   2.660   0.202
  690SOL    HW2 2083   2.382   2.624   0.324
  691SOL     OW 2084   2.669   2.467   1.465
  691SOL    HW1 2085   2.622   2.464   1.554
  691SOL    HW2 2086   2.618   2.412   1.399
  692SOL     OW 2087   2.853   2.272   1.242
  692SOL    HW1 2088   2.776   2.306   1.296
  692SOL    HW2 2089   2.819   2.221   1.163
  693SOL     OW 2090   1.938   2.673   0.789
  693SOL    HW1 2091   2.037   2.661   0.798
  693SOL    HW2 2092   1.914   2.768   0.810
  694SOL     OW 2093   2.727   2.210   0.195
  694SOL    HW1 2094   2.786   2.273   0.146
  694SOL    HW2 2095   2.746   2.116   0.166
  695SOL     OW 2096   2.412   2.058   0.885
  695SOL    HW1 2097   2.407   2.053   0.985
  695SOL    HW2 2098   2.414   2.154   0.856
  696SOL     OW 2099   2.064   2.147   1.498
  696SOL    HW1 2100   1.984   2.207   1.485
  696SOL    HW2 2101   2.054   2.098   1.584
  697SOL     OW 2102   2.244   2.562   0.480
  697SOL    HW1 2103   2.289   2.472   0.477
  697SOL    HW2 2104   2.150   2.551   0.513
  698SOL     OW 2105   2.476   1.984   0.117
  698SOL    HW1 2106   2.574   1.962   0.124
  698SOL    HW2 2107   2.445   1.967   0.024
  699SOL     OW 2108   2.643   2.126   1.749
  699SOL    HW1 2109   2.710   2.065   1.792
  699SOL    HW2 2110   2.570   2.145   1.814
  700SOL     OW 2111   2.784   2.365   0.899
  700SOL    HW1 2112   2.759   2.356   0.803
  700SOL    HW2 2113   2.832   2.283   0.930
  701SOL     OW 2114   2.401   1.926   0.512
  701SOL    HW1 2115   2.320   1.927   0.570
  701SOL    HW2 2116   2.404   2.009   0.457
  702SOL     OW 2117   1.940   2.418   1.386
  702SOL    HW1 2118   2.032   2.417   1.345
  702SOL    HW2 2119   1.934   2.492   1.453
  703SOL     OW 2120   2.423   2.084   1.147
  703SOL    HW1 2121   2.461   2.000   1.184
  703SOL    HW2 2122   2.335   2.103   1.191
  704SOL     OW 2123   2.879   1.901   0.753
  704SOL    HW1 2124   2.807   1.906   0.684
  704SOL    HW2 2125   2.855   1.832   0.822
  705SOL     OW 2126   2.389   2.118   0.328
  705SOL    HW1 2127   2.416   2.059   0.253
  705SOL    HW2 2128   2.389   2.213   0.297
  706SOL     OW 2129   2.777   1.951   1.402
  706SOL    HW1 2130   2.802   1.931   1.307
  706SOL    HW2 2131   2.849   2.007   1.444
  707SOL     OW 2132   2.272   2.675   1.251
  707SOL    HW1 2133   2.358   2.687   1.301
  707SOL    HW2 2134   2.230   2.588   1.278
  708SOL     OW 2135   2.428   2.399   0.865
  708SOL    HW1 2136   2.440   2.465   0.791
  708SOL    HW2 2137   2.474   2.433   0.948
  709SOL     OW 2138   2.264   2.613   1.598
  709SOL    HW1 2139   2.332   2.668   1.551
  709SOL    HW2 2140   2.304   2.525   1.625
  710SOL     OW 2141   2.875   1.967   1.770
  710SOL    HW1 2142   2.881   2.052   1.718
  710SOL    HW2 2143   2.907   1.891   1.713
  711SOL     OW 2144   2.366   1.912   1.740
  711SOL    HW1 2145   2.324   1.855   1.670
  711SOL    HW2 2146   2.300   1.981   1.772
  712SOL     OW 2147   2.435   2.732   1.029
  712SOL    HW1 2148   2.479   2.821   1.020
  712SOL    HW2 2149   2.372   2.732   1.106
  713SOL     OW 2150   3.071   2.387   0.275
  713SOL    HW1 2151   3.084   2.303   0.329
  713SOL    HW2 2152   3.042   2.461   0.335
  714SOL     OW 2153   2.169   2.075   1.231
  714SOL    HW1 2154   2.146   2.112   1.321
  714SOL    HW2 2155   2.139   1.980   1.225
  715SOL     OW 2156   2.594   2.496   1.064
  715SOL    HW1 2157   2.653   2.470   0.988
  715SOL    HW2 2158   2.566   2.592   1.053
  716SOL     OW 2159   2.169   1.925   0.618
  716SOL    HW1 2160   2.158   2.019   0.651
  716SOL    HW2 2161   2.164   1.862   0.695
  717SOL     OW 2162   2.885   2.628   0.966
  717SOL    HW1 2163   2.900   2.649   1.062
  717SOL    HW2 2164   2.855   2.533   0.957
  718SOL     OW 2165   2.212   2.760   1.804
  718SOL    HW1 2166   2.288   2.804   1.852
  718SOL    HW2 2167   2.247   2.713   1.722
  719SOL     OW 2168   2.181   2.672   0.949
  719SOL    HW1 2169   2.274   2.708   0.954
  719SOL    HW2 2170   2.175   2.587   1.001
  720SOL     OW 2171   2.201   2.371   1.006
  720SOL    HW1 2172   2.149   2.288   0.989
  720SOL    HW2 2173   2.278   2.376   0.942
  721SOL     OW 2174   2.864   2.658   1.238
  721SOL    HW1 2175   2.905   2.626   1.324
  721SOL    HW2 2176   2.768   2.631   1.235
  722SOL     OW 2177   1.902   2.406   1.114
  722SOL    HW1 2178   1.987   2.373   1.073
  722SOL    HW2 2179   1.915   2.421   1.212
  723SOL     OW 2180   2.051   2.382   1.722
  723SOL    HW1 2181   2.110   2.342   1.652
  723SOL    HW2 2182   1.993   2.453   1.681
  724SOL     OW 2183   2.677   2.434   0.325
  724SOL    HW1 2184   2.684   2.345   0.279
  724SOL    HW2 2185   2.583   2.468   0.317
  725SOL     OW 2186   2.533   2.326   1.269
  725SOL    HW1 2187   2.499   2.237   1.239
  725SOL    HW2 2188   2.559   2.380   1.189
  726SOL     OW 2189   2.335   2.362   0.191
  726SOL    HW1 2190   2.396   2.442   0.195
  726SOL    HW2 2191   2.240   2.393   0.198
  727SOL     OW 2192   2.021   2.999   1.466
  727SOL    HW1 2193   2.043   2.938   1.542
  727SOL    HW2 2194   2.031   2.950   1.380
  728SOL     OW 2195   3.164   2.717   0.309
  728SOL    HW1 2196   3.078   2.686   0.351
  728SOL    HW2 2197   3.160   2.703   0.210
  729SOL     OW 2198   2.765   1.948   0.133
  729SOL    HW1 2199   2.816   1.949   0.047
  729SOL    HW2 2200   2.821   1.906   0.204
  730SOL     OW 2201   2.125   2.188   0.720
  730SOL    HW1 2202   2.046   2.239   0.686
  730SOL    HW2 2203   2.116   2.173   0.818
  731SOL     OW 2204   2.876   2.098   0.971
  731SOL    HW1 2205   2.868   2.062   0.878
  731SOL    HW2 2206   2.874   2.022   1.036
  732SOL     OW 2207   1.967   2.875   1.726
  732SOL    HW1 2208   1.890   2.842   1.780
  732SOL    HW2 2209   2.052   2.845   1.768
  733SOL     OW 2210   2.534   2.065   1.489
  733SOL    HW1 2211   2.624   2.049   1.449
  733SOL    HW2 2212   2.542   2.070   1.588
  734SOL     OW 2213   1.937   2.207   0.033
  734SOL    HW1 2214   1.845   2.179   0.004
  734SOL    HW2 2215   1.968   2.284  -0.023
  735SOL     OW 2216   2.475   2.704   1.431
  735SOL    HW1 2217   2.531   2.785   1.414
  735SOL    HW2 2218   2.534   2.624   1.434
  736SOL     OW 2219   2.578   2.427   1.708
  736SOL    HW1 2220   2.597   2.492   1.782
  736SOL    HW2 2221   2.638   2.347   1.717
  737SOL     OW 2222   3.087   2.187   0.449
  737SOL    HW1 2223   3.152   2.113   0.438
  737SOL    HW2 2224   3.107   2.237   0.533
  738SOL     OW 2225   2.456   2.607   0.652
  738SOL    HW1 2226   2.506   2.692   0.633
  738SOL    HW2 2227   2.368   2.609   0.604
  739SOL     OW 2228   2.945   2.846   0.087
  739SOL    HW1 2229   2.922   2.899   0.005
  739SOL    HW2 2230   3.026   2.790   0.068
  740SOL     OW 2231   2.290   2.286   0.520
  740SOL    HW1 2232   2.320   2.214   0.458
  740SOL    HW2 2233   2.251   2.246   0.603
  741SOL     OW 2234   2.179   2.409   1.280
  741SOL    HW1 2235   2.217   2.350   1.352
  741SOL    HW2 2236   2.219   2.383   1.192
  742SOL     OW 2237   2.863   1.896   1.154
  742SOL    HW1 2238   2.800   1.824   1.123
  742SOL    HW2 2239   2.956   1.860   1.154
  743SOL     OW 2240   2.092   2.490   1.975
  743SOL    HW1 2241   1.999   2.488   2.012
  743SOL    HW2 2242   2.093   2.451   1.883
  744SOL     OW 2243   2.087   2.137   2.858
  744SOL    HW1 2244   2.122   2.120   2.950
  744SOL    HW2 2245   1.999   2.092   2.846
  745SOL     OW 2246   1.881   2.230   2.509
  745SOL    HW1 2247   1.799   2.273   2.548
  745SOL    HW2 2248   1.853   2.157   2.446
  746SOL     OW 2249   2.547   2.874   2.527
  746SOL    HW1 2250   2.616   2.858   2.597
  746SOL    HW2 2251   2.474   2.931   2.565
  747SOL     OW 2252   1.984   2.505   2.425
  747SOL    HW1 2253   1.939   2.417   2.442
  747SOL    HW2 2254   1.983   2.559   2.509
  748SOL     OW 2255   2.475   3.227   2.588
  748SOL    HW1 2256   2.426   3.140   2.597
  748SOL    HW2 2257   2.452   3.270   2.501
  749SOL     OW 2258   2.671   1.866   2.364
  749SOL    HW1 2259   2.711   1.957   2.355
  749SOL    HW2 2260   2.571   1.874   2.370
  750SOL     OW 2261   2.460   2.591   2.132
  750SOL    HW1 2262   2.484   2.660   2.064
  750SOL    HW2 2263   2.382   2.624   2.186
  751SOL     OW 2264   1.938   2.673   2.651
  751SOL    HW1 2265   2.037   2.661   2.660
  751SOL    HW2 2266   1.914   2.768   2.672
  752SOL     OW 2267   2.727   2.210   2.057
  752SOL    HW1 2268   2.786   2.273   2.008
  752SOL    HW2 2269   2.746   2.116   2.028
  753SOL     OW 2270   2.244   2.562   2.342
  753SOL    HW1 2271   2.289   2.472   2.339
  753SOL    HW2 2272   2.150   2.551   2.375
  754SOL     OW 2273   2.476   1.984   1.979
  754SOL    HW1 2274   2.574   1.962   1.986
  754SOL    HW2 2275   2.445   1.967   1.886
  755SOL     OW 2276   2.784   2.365   2.761
  755SOL    HW1 2277   2.759   2.356   2.665
  755SOL    HW2 2278   2.832   2.283   2.792
  756SOL     OW 2279   2.401   1.926   2.374
  756SOL    HW1 2280   2.320   1.927   2.432
  756SOL    HW2 2281   2.404   2.009   2.319
  757SOL     OW 2282   2.159   1.897   2.033
  757SOL    HW1 2283   2.208   1.981   2.012
  757SOL    HW2 2284   2.221   1.832   2.078
  758SOL     OW 2285   2.879   1.901   2.615
  758SOL    HW1 2286   2.807   1.906   2.546
  758SOL    HW2 2287   2.855   1.832   2.684
  759SOL     OW 2288   2.389   2.118   2.190
  759SOL    HW1 2289   2.416   2.059   2.115
  759SOL    HW2 2290   2.389   2.213   2.159
  760SOL     OW 2291   2.428   2.399   2.727
  760SOL    HW1 2292   2.440   2.465   2.653
  760SOL    HW2 2293   2.474   2.433   2.810
  761SOL     OW 2294   2.435   2.732   2.891
  761SOL    HW1 2295   2.479   2.821   2.882
  761SOL    HW2 2296   2.372   2.732   2.968
  762SOL     OW 2297   3.071   2.387   2.137
  762SOL    HW1 2298   3.084   2.303   2.191
  762SOL    HW2 2299   3.042   2.461   2.197
  763SOL     OW 2300   2.169   2.075   3.093
  763SOL    HW1 2301   2.146   2.112   3.183
  763SOL    HW2 2302   2.139   1.980   3.087
  764SOL     OW 2303   2.594   2.496   2.926
  764SOL    HW1 2304   2.653   2.470   2.850
  764SOL    HW2 2305   2.566   2.592   2.915
  765SOL     OW 2306   2.169   1.925   2.480
  765SOL    HW1 2307   2.158   2.019   2.513
  765SOL    HW2 2308   2.164   1.862   2.557
  766SOL     OW 2309   2.885   2.628   2.828
  766SOL    HW1 2310   2.900   2.649   2.924
  766SOL    HW2 2311   2.855   2.533   2.819
  767SOL     OW 2312   2.930   3.195   2.711
  767SOL    HW1 2313   2.937   3.111   2.656
  767SOL    HW2 2314   2.992   3.264   2.675
  768SOL     OW 2315   2.181   2.672   2.811
  768SOL    HW1 2316   2.274   2.708   2.816
  768SOL    HW2 2317   2.175   2.587   2.863
  769SOL     OW 2318   2.864   2.658   3.100
  769SOL    HW1 2319   2.905   2.626   3.186
  769SOL    HW2 2320   2.768   2.631   3.097
  770SOL     OW 2321   2.677   2.434   2.187
  770SOL    HW1 2322   2.684   2.345   2.141
  770SOL    HW2 2323   2.583   2.468   2.179
  771SOL     OW 2324   2.533   2.326   3.131
  771SOL    HW1 2325   2.499   2.237   3.101
  771SOL    HW2 2326   2.559   2.380   3.051
  772SOL     OW 2327   2.335   2.362   2.053
  772SOL    HW1 2328   2.396   2.442   2.057
  772SOL    HW2 2329   2.240   2.393   2.060
  773SOL     OW 2330   3.164   2.717   2.171
  773SOL    HW1 2331   3.078   2.686   2.213
  773SOL    HW2 2332   3.160   2.703   2.072
  774SOL     OW 2333   2.125   2.188   2.582
  774SOL    HW1 2334   2.046   2.239   2.548
  774SOL    HW2 2335   2.116   2.173   2.680
  775SOL     OW 2336   1.937   2.207   1.895
  775SOL    HW1 2337   1.845   2.179   1.866
  775SOL    HW2 2338   1.968   2.284   1.839
  776SOL     OW 2339   1.934   2.028   2.180
  776SOL    HW1 2340   1.917   2.111   2.126
  776SOL    HW2 2341   2.024   1.991   2.158
  777SOL     OW 2342   3.087   2.187   2.311
  777SOL    HW1 2343   3.152   2.113   2.300
  777SOL    HW2 2344   3.107   2.237   2.395
  778SOL     OW 2345   2.456   2.607   2.514
  778SOL    HW1 2346   2.506   2.692   2.495
  778SOL    HW2 2347   2.368   2.609   2.466
  779SOL     OW 2348   2.290   2.286   2.382
  779SOL    HW1 2349   2.320   2.214   2.320
  779SOL    HW2 2350   2.251   2.246   2.465
   2.89732   2.89732   2.89732
